Program Version,EnergyPlus, Version 8.9.0-40101eaafd, YMD=2018.11.11 12:43
1,5,Environment Title[],Latitude[deg],Longitude[deg],Time Zone[],Elevation[m]
2,8,Day of Simulation[],Month[],Day of Month[],DST Indicator[1=yes 0=no],Hour[],StartMinute[],EndMinute[],DayType
3,5,Cumulative Day of Simulation[],Month[],Day of Month[],DST Indicator[1=yes 0=no],DayType  ! When Daily Report Variables Requested
4,2,Cumulative Days of Simulation[],Month[]  ! When Monthly Report Variables Requested
5,1,Cumulative Days of Simulation[] ! When Run Period Report Variables Requested
6,1,Calendar Year of Simulation[] ! When Annual Report Variables Requested
7,1,SOUTH WALL,Surface Outside Face Incident Solar Radiation Rate per Area [W/m2] !Hourly
8,1,SOUTH WINDOW LEFT,Surface Outside Face Incident Solar Radiation Rate per Area [W/m2] !Hourly
9,1,SOUWTH WINDOW RIGHT,Surface Outside Face Incident Solar Radiation Rate per Area [W/m2] !Hourly
10,1,EAST WALL,Surface Outside Face Incident Solar Radiation Rate per Area [W/m2] !Hourly
11,1,NORTH WALL,Surface Outside Face Incident Solar Radiation Rate per Area [W/m2] !Hourly
12,1,WEST WALL,Surface Outside Face Incident Solar Radiation Rate per Area [W/m2] !Hourly
13,1,ROOF,Surface Outside Face Incident Solar Radiation Rate per Area [W/m2] !Hourly
14,1,SOUTH WALL,Surface Outside Face Solar Radiation Heat Gain Rate per Area [W/m2] !Hourly
15,1,EAST WALL,Surface Outside Face Solar Radiation Heat Gain Rate per Area [W/m2] !Hourly
16,1,NORTH WALL,Surface Outside Face Solar Radiation Heat Gain Rate per Area [W/m2] !Hourly
17,1,WEST WALL,Surface Outside Face Solar Radiation Heat Gain Rate per Area [W/m2] !Hourly
18,1,ROOF,Surface Outside Face Solar Radiation Heat Gain Rate per Area [W/m2] !Hourly
105,1,ZONE 1,Zone Air System Sensible Heating Rate [W] !Hourly
106,1,ZONE 1,Zone Air System Sensible Cooling Rate [W] !Hourly
End of Data Dictionary
1,ANNUAL,  39.76,-104.86,  -7.00,1611.00
2,1, 1, 1, 0, 1, 0.00,60.00,Sunday
7,0.0
8,0.0
9,0.0
10,0.0
11,0.0
12,0.0
13,0.0
14,0.0
15,0.0
16,0.0
17,0.0
18,0.0
105,1665.854495562559
106,0.0
2,1, 1, 1, 0, 2, 0.00,60.00,Sunday
7,0.0
8,0.0
9,0.0
10,0.0
11,0.0
12,0.0
13,0.0
14,0.0
15,0.0
16,0.0
17,0.0
18,0.0
105,1621.710581175111
106,0.0
2,1, 1, 1, 0, 3, 0.00,60.00,Sunday
7,0.0
8,0.0
9,0.0
10,0.0
11,0.0
12,0.0
13,0.0
14,0.0
15,0.0
16,0.0
17,0.0
18,0.0
105,1618.6613113981111
106,0.0
2,1, 1, 1, 0, 4, 0.00,60.00,Sunday
7,0.0
8,0.0
9,0.0
10,0.0
11,0.0
12,0.0
13,0.0
14,0.0
15,0.0
16,0.0
17,0.0
18,0.0
105,1620.1400228599166
106,0.0
2,1, 1, 1, 0, 5, 0.00,60.00,Sunday
7,0.0
8,0.0
9,0.0
10,0.0
11,0.0
12,0.0
13,0.0
14,0.0
15,0.0
16,0.0
17,0.0
18,0.0
105,1621.1653259111665
106,0.0
2,1, 1, 1, 0, 6, 0.00,60.00,Sunday
7,0.0
8,0.0
9,0.0
10,0.0
11,0.0
12,0.0
13,0.0
14,0.0
15,0.0
16,0.0
17,0.0
18,0.0
105,1618.6887465832872
106,0.0
2,1, 1, 1, 0, 7, 0.00,60.00,Sunday
7,0.0
8,0.0
9,0.0
10,0.0
11,0.0
12,0.0
13,0.0
14,0.0
15,0.0
16,0.0
17,0.0
18,0.0
105,1523.36318826058
106,0.0
2,1, 1, 1, 0, 8, 0.00,60.00,Sunday
7,28.26352056874596
8,28.26352056874596
9,28.26352056874596
10,36.11412903353281
11,10.482877605767247
12,10.482877605767247
13,21.39829870367755
14,16.958112341247575
15,21.668477420119687
16,6.2897265634603489
17,6.2897265634603489
18,12.838979222206529
105,1383.1183953190816
106,0.0
2,1, 1, 1, 0, 9, 0.00,60.00,Sunday
7,114.47219389202052
8,114.47219389202052
9,114.47219389202052
10,122.38728780904803
11,44.79566112036541
12,44.79566112036541
13,97.31928462571236
14,68.68331633521231
15,73.43237268542882
16,26.87739667221924
17,26.87739667221924
18,58.39157077542741
105,978.2089587039927
106,0.0
2,1, 1, 1, 0,10, 0.00,60.00,Sunday
7,230.71498352524629
8,230.71498352524629
9,230.71498352524629
10,172.88736484233474
11,61.965361361569247
12,61.965361361569247
13,162.47806674115646
14,138.42899011514778
15,103.73241890540084
16,37.17921681694154
17,37.17921681694154
18,97.48684004469387
105,485.86508196371337
106,0.0
2,1, 1, 1, 0,11, 0.00,60.00,Sunday
7,783.5297997292837
8,783.5297997292837
9,783.5297997292837
10,370.37701241791447
11,83.91926025643756
12,83.91926025643756
13,397.3659459842511
14,470.1178798375702
15,222.22620745074867
16,50.351556153862528
17,50.351556153862528
18,238.41956759055064
105,0.0
106,84.48606202818749
2,1, 1, 1, 0,12, 0.00,60.00,Sunday
7,941.6137077749876
8,941.6137077749876
9,941.6137077749876
10,199.66107974333193
11,85.35121578415792
12,85.35121578415792
13,493.0319031372155
14,564.9682246649925
15,119.79664784599913
16,51.21072947049475
17,51.21072947049475
18,295.8191418823293
105,0.0
106,2557.7876644137255
2,1, 1, 1, 0,13, 0.00,60.00,Sunday
7,918.5280554005634
8,918.5280554005634
9,918.5280554005634
10,70.6686357813885
11,70.6686357813885
12,190.77066160202333
13,475.40865410514587
14,551.116833240338
15,42.4011814688331
16,42.4011814688331
17,114.46239696121399
18,285.24519246308747
105,0.0
106,4611.687015597362
2,1, 1, 1, 0,14, 0.00,60.00,Sunday
7,825.4710652457992
8,825.4710652457992
9,825.4710652457992
10,49.90819747636143
11,49.90819747636143
12,380.56343892638207
13,399.6040882837648
14,495.2826391474794
15,29.944918485816858
16,29.944918485816858
17,228.3380633558292
18,239.76245297025893
105,0.0
106,5109.454107743053
2,1, 1, 1, 0,15, 0.00,60.00,Sunday
7,639.4186325876558
8,639.4186325876558
9,639.4186325876558
10,27.82905689339292
11,27.82905689339292
12,482.9635990590676
13,266.31483743041147
14,383.6511795525935
15,16.697434136035754
16,16.697434136035754
17,289.77815943544058
18,159.78890245824688
105,0.0
106,4477.961696325968
2,1, 1, 1, 0,16, 0.00,60.00,Sunday
7,388.74365142666877
8,388.74365142666877
9,388.74365142666877
10,12.540144485157797
11,12.540144485157797
12,431.61453779664427
13,117.95531329748158
14,233.2461908560012
15,7.524086691094677
16,7.524086691094677
17,258.9687226779866
18,70.77318797848895
105,0.0
106,3073.829492878111
2,1, 1, 1, 0,17, 0.00,60.00,Sunday
7,58.144904297507668
8,58.144904297507668
9,58.144904297507668
10,4.365064676294259
11,4.365064676294259
12,84.55416967850705
13,12.195584934577699
14,34.88694257850459
15,2.6190388057765556
16,2.6190388057765556
17,50.73250180710423
18,7.317350960746619
105,0.0
106,945.9637946973626
2,1, 1, 1, 0,18, 0.00,60.00,Sunday
7,0.0
8,0.0
9,0.0
10,0.0
11,0.0
12,0.0
13,0.0
14,0.0
15,0.0
16,0.0
17,0.0
18,0.0
105,0.0
106,0.0
2,1, 1, 1, 0,19, 0.00,60.00,Sunday
7,0.0
8,0.0
9,0.0
10,0.0
11,0.0
12,0.0
13,0.0
14,0.0
15,0.0
16,0.0
17,0.0
18,0.0
105,0.0
106,0.0
2,1, 1, 1, 0,20, 0.00,60.00,Sunday
7,0.0
8,0.0
9,0.0
10,0.0
11,0.0
12,0.0
13,0.0
14,0.0
15,0.0
16,0.0
17,0.0
18,0.0
105,81.4178703239814
106,0.0
2,1, 1, 1, 0,21, 0.00,60.00,Sunday
7,0.0
8,0.0
9,0.0
10,0.0
11,0.0
12,0.0
13,0.0
14,0.0
15,0.0
16,0.0
17,0.0
18,0.0
105,627.9832792085164
106,0.0
2,1, 1, 1, 0,22, 0.00,60.00,Sunday
7,0.0
8,0.0
9,0.0
10,0.0
11,0.0
12,0.0
13,0.0
14,0.0
15,0.0
16,0.0
17,0.0
18,0.0
105,1030.4805994031917
106,0.0
2,1, 1, 1, 0,23, 0.00,60.00,Sunday
7,0.0
8,0.0
9,0.0
10,0.0
11,0.0
12,0.0
13,0.0
14,0.0
15,0.0
16,0.0
17,0.0
18,0.0
105,1301.2265336701519
106,0.0
2,1, 1, 1, 0,24, 0.00,60.00,Sunday
7,0.0
8,0.0
9,0.0
10,0.0
11,0.0
12,0.0
13,0.0
14,0.0
15,0.0
16,0.0
17,0.0
18,0.0
105,1556.5645849950863
106,0.0
2,2, 1, 2, 0, 1, 0.00,60.00,Monday
7,0.0
8,0.0
9,0.0
10,0.0
11,0.0
12,0.0
13,0.0
14,0.0
15,0.0
16,0.0
17,0.0
18,0.0
105,1811.8485292606535
106,0.0
2,2, 1, 2, 0, 2, 0.00,60.00,Monday
7,0.0
8,0.0
9,0.0
10,0.0
11,0.0
12,0.0
13,0.0
14,0.0
15,0.0
16,0.0
17,0.0
18,0.0
105,1999.696809732092
106,0.0
2,2, 1, 2, 0, 3, 0.00,60.00,Monday
7,0.0
8,0.0
9,0.0
10,0.0
11,0.0
12,0.0
13,0.0
14,0.0
15,0.0
16,0.0
17,0.0
18,0.0
105,2167.862006867878
106,0.0
2,2, 1, 2, 0, 4, 0.00,60.00,Monday
7,0.0
8,0.0
9,0.0
10,0.0
11,0.0
12,0.0
13,0.0
14,0.0
15,0.0
16,0.0
17,0.0
18,0.0
105,2294.727341201813
106,0.0
2,2, 1, 2, 0, 5, 0.00,60.00,Monday
7,0.0
8,0.0
9,0.0
10,0.0
11,0.0
12,0.0
13,0.0
14,0.0
15,0.0
16,0.0
17,0.0
18,0.0
105,2393.02281744399
106,0.0
2,2, 1, 2, 0, 6, 0.00,60.00,Monday
7,0.0
8,0.0
9,0.0
10,0.0
11,0.0
12,0.0
13,0.0
14,0.0
15,0.0
16,0.0
17,0.0
18,0.0
105,2494.6604811740954
106,0.0
2,2, 1, 2, 0, 7, 0.00,60.00,Monday
7,0.0
8,0.0
9,0.0
10,0.0
11,0.0
12,0.0
13,0.0
14,0.0
15,0.0
16,0.0
17,0.0
18,0.0
105,2582.5370096697343
106,0.0
2,2, 1, 2, 0, 8, 0.00,60.00,Monday
7,3.685575585735493
8,3.685575585735493
9,3.685575585735493
10,3.8372620194422586
11,3.3726307274917048
12,3.3726307274917048
13,6.610773005217861
14,2.2113453514412955
15,2.302357211665355
16,2.023578436495023
17,2.023578436495023
18,3.966463803130716
105,2625.928734645988
106,0.0
2,2, 1, 2, 0, 9, 0.00,60.00,Monday
7,16.746336379972797
8,16.746336379972797
9,16.746336379972797
10,16.96496488802197
11,14.785904403523653
12,14.785904403523653
13,29.10769335074704
14,10.047801827983678
15,10.178978932813184
16,8.871542642114191
17,8.871542642114191
18,17.464616010448226
105,2607.996064342708
106,0.0
2,2, 1, 2, 0,10, 0.00,60.00,Monday
7,28.41980110971879
8,28.41980110971879
9,28.41980110971879
10,27.640807092909115
11,25.43586108141626
12,25.43586108141626
13,49.97894333394428
14,17.051880665831275
15,16.584484255745467
16,15.261516648849757
17,15.261516648849757
18,29.987366000366565
105,2557.108951102903
106,0.0
2,2, 1, 2, 0,11, 0.00,60.00,Monday
7,36.747786757659
8,36.747786757659
9,36.747786757659
10,34.817508401370819
11,33.41140331419004
12,33.41140331419004
13,65.3661302104728
14,22.048672054595398
15,20.89050504082249
16,20.04684198851402
17,20.04684198851402
18,39.21967812628368
105,2479.4980794151124
106,0.0
2,2, 1, 2, 0,12, 0.00,60.00,Monday
7,41.05102126992605
8,41.05102126992605
9,41.05102126992605
10,38.02843059839843
11,37.556505001200509
12,37.556505001200509
13,73.30619678115079
14,24.63061276195563
15,22.817058359039053
16,22.533903000720306
17,22.533903000720306
18,43.98371806869047
105,2460.894509549841
106,0.0
2,2, 1, 2, 0,13, 0.00,60.00,Monday
7,40.44941464900862
8,40.44941464900862
9,40.44941464900862
10,36.95679200635734
11,36.95679200635734
12,37.45120684869741
13,72.17892075140493
14,24.269648789405168
15,22.174075203814405
16,22.174075203814405
17,22.470724109218449
18,43.307352450842959
105,2519.9037248691116
106,0.0
2,2, 1, 2, 0,14, 0.00,60.00,Monday
7,35.08225576057346
8,35.08225576057346
9,35.08225576057346
10,31.751424147839715
11,31.751424147839715
12,33.17848587527144
13,62.23445722890106
14,21.049353456344073
15,19.050854488703828
16,19.050854488703828
17,19.907091525162867
18,37.34067433734063
105,2579.9742365857655
106,0.0
2,2, 1, 2, 0,15, 0.00,60.00,Monday
7,25.87534589751617
8,25.87534589751617
9,25.87534589751617
10,22.991498656203679
11,22.991498656203679
12,25.137478355992948
13,45.30649727346551
14,15.525207538509703
15,13.794899193722206
16,13.794899193722206
17,15.082487013595769
18,27.183898364079299
105,2640.4751403262576
106,0.0
2,2, 1, 2, 0,16, 0.00,60.00,Monday
7,13.659462881012875
8,13.659462881012875
9,13.659462881012875
10,11.90837822592866
11,11.90837822592866
12,13.866720218200129
13,23.5382191952095
14,8.195677728607724
15,7.145026935557196
16,7.145026935557196
17,8.320032130920078
18,14.122931517125702
105,2748.9574239493463
106,0.0
2,2, 1, 2, 0,17, 0.00,60.00,Monday
7,1.8723035963819517
8,1.8723035963819517
9,1.8723035963819517
10,1.5280669908331955
11,1.5280669908331955
12,2.047041747651215
13,2.9869540282564146
14,1.123382157829171
15,0.9168401944999172
16,0.9168401944999172
17,1.228225048590729
18,1.7921724169538487
105,2915.802709099648
106,0.0
2,2, 1, 2, 0,18, 0.00,60.00,Monday
7,0.0
8,0.0
9,0.0
10,0.0
11,0.0
12,0.0
13,0.0
14,0.0
15,0.0
16,0.0
17,0.0
18,0.0
105,3057.656252378427
106,0.0
2,2, 1, 2, 0,19, 0.00,60.00,Monday
7,0.0
8,0.0
9,0.0
10,0.0
11,0.0
12,0.0
13,0.0
14,0.0
15,0.0
16,0.0
17,0.0
18,0.0
105,3130.397114381712
106,0.0
2,2, 1, 2, 0,20, 0.00,60.00,Monday
7,0.0
8,0.0
9,0.0
10,0.0
11,0.0
12,0.0
13,0.0
14,0.0
15,0.0
16,0.0
17,0.0
18,0.0
105,3169.7070201209935
106,0.0
2,2, 1, 2, 0,21, 0.00,60.00,Monday
7,0.0
8,0.0
9,0.0
10,0.0
11,0.0
12,0.0
13,0.0
14,0.0
15,0.0
16,0.0
17,0.0
18,0.0
105,3198.669994003344
106,0.0
2,2, 1, 2, 0,22, 0.00,60.00,Monday
7,0.0
8,0.0
9,0.0
10,0.0
11,0.0
12,0.0
13,0.0
14,0.0
15,0.0
16,0.0
17,0.0
18,0.0
105,3231.008465078395
106,0.0
2,2, 1, 2, 0,23, 0.00,60.00,Monday
7,0.0
8,0.0
9,0.0
10,0.0
11,0.0
12,0.0
13,0.0
14,0.0
15,0.0
16,0.0
17,0.0
18,0.0
105,3274.1207657883724
106,0.0
2,2, 1, 2, 0,24, 0.00,60.00,Monday
7,0.0
8,0.0
9,0.0
10,0.0
11,0.0
12,0.0
13,0.0
14,0.0
15,0.0
16,0.0
17,0.0
18,0.0
105,3293.1459386974107
106,0.0
2,3, 1, 3, 0, 1, 0.00,60.00,Tuesday
7,0.0
8,0.0
9,0.0
10,0.0
11,0.0
12,0.0
13,0.0
14,0.0
15,0.0
16,0.0
17,0.0
18,0.0
105,3311.6953503620894
106,0.0
2,3, 1, 3, 0, 2, 0.00,60.00,Tuesday
7,0.0
8,0.0
9,0.0
10,0.0
11,0.0
12,0.0
13,0.0
14,0.0
15,0.0
16,0.0
17,0.0
18,0.0
105,3314.650978807455
106,0.0
2,3, 1, 3, 0, 3, 0.00,60.00,Tuesday
7,0.0
8,0.0
9,0.0
10,0.0
11,0.0
12,0.0
13,0.0
14,0.0
15,0.0
16,0.0
17,0.0
18,0.0
105,3289.1976606124135
106,0.0
2,3, 1, 3, 0, 4, 0.00,60.00,Tuesday
7,0.0
8,0.0
9,0.0
10,0.0
11,0.0
12,0.0
13,0.0
14,0.0
15,0.0
16,0.0
17,0.0
18,0.0
105,3279.8843904543323
106,0.0
2,3, 1, 3, 0, 5, 0.00,60.00,Tuesday
7,0.0
8,0.0
9,0.0
10,0.0
11,0.0
12,0.0
13,0.0
14,0.0
15,0.0
16,0.0
17,0.0
18,0.0
105,3314.8490806216887
106,0.0
2,3, 1, 3, 0, 6, 0.00,60.00,Tuesday
7,0.0
8,0.0
9,0.0
10,0.0
11,0.0
12,0.0
13,0.0
14,0.0
15,0.0
16,0.0
17,0.0
18,0.0
105,3374.988540284209
106,0.0
2,3, 1, 3, 0, 7, 0.00,60.00,Tuesday
7,0.0
8,0.0
9,0.0
10,0.0
11,0.0
12,0.0
13,0.0
14,0.0
15,0.0
16,0.0
17,0.0
18,0.0
105,3430.046138134797
106,0.0
2,3, 1, 3, 0, 8, 0.00,60.00,Tuesday
7,20.77756907575132
8,20.77756907575132
9,20.77756907575132
10,25.780807643616606
11,9.591027988312204
12,9.591027988312204
13,18.960113642802509
14,12.466541445450793
15,15.46848458616996
16,5.754616792987322
17,5.754616792987322
18,11.376068185681504
105,3380.0978470097275
106,0.0
2,3, 1, 3, 0, 9, 0.00,60.00,Tuesday
7,82.177560270035
8,82.177560270035
9,82.177560270035
10,86.96600437879053
11,40.11750442688381
12,40.11750442688381
13,82.44544727282694
14,49.306536162021007
15,52.179602627274309
16,24.070502656130289
17,24.070502656130289
18,49.467268363696167
105,3094.895607913501
106,0.0
2,3, 1, 3, 0,10, 0.00,60.00,Tuesday
7,72.2067464656683
8,72.2067464656683
9,72.2067464656683
10,67.54486420302954
11,54.75871108341754
12,54.75871108341754
13,110.18367123948542
14,43.32404787940098
15,40.52691852181771
16,32.855226650050528
17,32.855226650050528
18,66.11020274369125
105,2975.0220619501483
106,0.0
2,3, 1, 3, 0,11, 0.00,60.00,Tuesday
7,270.28316196918589
8,270.28316196918589
9,270.28316196918589
10,139.1021727518089
11,71.55567526082106
12,71.55567526082106
13,198.95346679603726
14,162.1698971815115
15,83.46130365108533
16,42.93340515649263
17,42.93340515649263
18,119.37208007762234
105,2573.9504743719494
106,0.0
2,3, 1, 3, 0,12, 0.00,60.00,Tuesday
7,882.6331670974042
8,882.6331670974042
9,882.6331670974042
10,186.231877775416
11,82.55830872203642
12,82.55830872203642
13,463.45462058570538
14,529.5799002584425
15,111.7391266652496
16,49.534985233221849
17,49.534985233221849
18,278.07277235142319
105,359.7157716412397
106,0.0
2,3, 1, 3, 0,13, 0.00,60.00,Tuesday
7,823.9468838637476
8,823.9468838637476
9,823.9468838637476
10,73.88574847200647
11,73.88574847200647
12,175.66350043990139
13,430.29024856708909
14,494.3681303182485
15,44.33144908320387
16,44.33144908320387
17,105.39810026394084
18,258.1741491402534
105,0.0
106,41.17392556606014
2,3, 1, 3, 0,14, 0.00,60.00,Tuesday
7,560.2104300857388
8,560.2104300857388
9,560.2104300857388
10,72.55551730737791
11,72.55551730737791
12,279.7200315453252
13,292.07556558859286
14,336.1262580514433
15,43.53331038442675
16,43.53331038442675
17,167.83201892719507
18,175.2453393531557
105,0.0
106,307.03801701450177
2,3, 1, 3, 0,15, 0.00,60.00,Tuesday
7,478.9797047324094
8,478.9797047324094
9,478.9797047324094
10,51.34371771446463
11,51.34371771446463
12,373.1551681048486
13,212.86529627588897
14,287.3878228394456
15,30.806230628678774
16,30.806230628678774
17,223.8931008629092
18,127.71917776553338
105,0.0
106,160.54192969234269
2,3, 1, 3, 0,16, 0.00,60.00,Tuesday
7,354.1571384870621
8,354.1571384870621
9,354.1571384870621
10,17.683204751513825
11,17.683204751513825
12,393.52603001150148
13,109.94136856311455
14,212.49428309223729
15,10.609922850908293
16,10.609922850908293
17,236.1156180069009
18,65.96482113786874
105,0.0
106,0.9761137270152009
2,3, 1, 3, 0,17, 0.00,60.00,Tuesday
7,49.635158386238447
8,49.635158386238447
9,49.635158386238447
10,4.675862374126925
11,4.675862374126925
12,71.32028918945182
13,11.748625204986358
14,29.78109503174306
15,2.8055174244761549
16,2.8055174244761549
17,42.79217351367109
18,7.049175122991813
105,51.29636479174219
106,0.0
2,3, 1, 3, 0,18, 0.00,60.00,Tuesday
7,0.0
8,0.0
9,0.0
10,0.0
11,0.0
12,0.0
13,0.0
14,0.0
15,0.0
16,0.0
17,0.0
18,0.0
105,1274.990098708593
106,0.0
2,3, 1, 3, 0,19, 0.00,60.00,Tuesday
7,0.0
8,0.0
9,0.0
10,0.0
11,0.0
12,0.0
13,0.0
14,0.0
15,0.0
16,0.0
17,0.0
18,0.0
105,2369.0307398319196
106,0.0
2,3, 1, 3, 0,20, 0.00,60.00,Tuesday
7,0.0
8,0.0
9,0.0
10,0.0
11,0.0
12,0.0
13,0.0
14,0.0
15,0.0
16,0.0
17,0.0
18,0.0
105,2929.5457925707083
106,0.0
2,3, 1, 3, 0,21, 0.00,60.00,Tuesday
7,0.0
8,0.0
9,0.0
10,0.0
11,0.0
12,0.0
13,0.0
14,0.0
15,0.0
16,0.0
17,0.0
18,0.0
105,3209.6022177014293
106,0.0
2,3, 1, 3, 0,22, 0.00,60.00,Tuesday
7,0.0
8,0.0
9,0.0
10,0.0
11,0.0
12,0.0
13,0.0
14,0.0
15,0.0
16,0.0
17,0.0
18,0.0
105,3328.957899674597
106,0.0
2,3, 1, 3, 0,23, 0.00,60.00,Tuesday
7,0.0
8,0.0
9,0.0
10,0.0
11,0.0
12,0.0
13,0.0
14,0.0
15,0.0
16,0.0
17,0.0
18,0.0
105,3396.4038745423836
106,0.0
2,3, 1, 3, 0,24, 0.00,60.00,Tuesday
7,0.0
8,0.0
9,0.0
10,0.0
11,0.0
12,0.0
13,0.0
14,0.0
15,0.0
16,0.0
17,0.0
18,0.0
105,3466.6935851585595
106,0.0
2,4, 1, 4, 0, 1, 0.00,60.00,Wednesday
7,0.0
8,0.0
9,0.0
10,0.0
11,0.0
12,0.0
13,0.0
14,0.0
15,0.0
16,0.0
17,0.0
18,0.0
105,3571.785477476208
106,0.0
2,4, 1, 4, 0, 2, 0.00,60.00,Wednesday
7,0.0
8,0.0
9,0.0
10,0.0
11,0.0
12,0.0
13,0.0
14,0.0
15,0.0
16,0.0
17,0.0
18,0.0
105,3691.5131192445756
106,0.0
2,4, 1, 4, 0, 3, 0.00,60.00,Wednesday
7,0.0
8,0.0
9,0.0
10,0.0
11,0.0
12,0.0
13,0.0
14,0.0
15,0.0
16,0.0
17,0.0
18,0.0
105,3729.7531246572303
106,0.0
2,4, 1, 4, 0, 4, 0.00,60.00,Wednesday
7,0.0
8,0.0
9,0.0
10,0.0
11,0.0
12,0.0
13,0.0
14,0.0
15,0.0
16,0.0
17,0.0
18,0.0
105,3738.9075388696056
106,0.0
2,4, 1, 4, 0, 5, 0.00,60.00,Wednesday
7,0.0
8,0.0
9,0.0
10,0.0
11,0.0
12,0.0
13,0.0
14,0.0
15,0.0
16,0.0
17,0.0
18,0.0
105,3750.6352841821526
106,0.0
2,4, 1, 4, 0, 6, 0.00,60.00,Wednesday
7,0.0
8,0.0
9,0.0
10,0.0
11,0.0
12,0.0
13,0.0
14,0.0
15,0.0
16,0.0
17,0.0
18,0.0
105,3746.752836945995
106,0.0
2,4, 1, 4, 0, 7, 0.00,60.00,Wednesday
7,0.0
8,0.0
9,0.0
10,0.0
11,0.0
12,0.0
13,0.0
14,0.0
15,0.0
16,0.0
17,0.0
18,0.0
105,3746.599688082385
106,0.0
2,4, 1, 4, 0, 8, 0.00,60.00,Wednesday
7,112.09760613574241
8,112.09760613574241
9,112.09760613574241
10,159.9461364017103
11,17.38902460250077
12,17.38902460250077
13,38.9809075053775
14,67.25856368144543
15,95.9676818410262
16,10.433414761500459
17,10.433414761500459
18,23.3885445032265
105,3475.682778370374
106,0.0
2,4, 1, 4, 0, 9, 0.00,60.00,Wednesday
7,401.16329100882117
8,401.16329100882117
9,401.16329100882117
10,436.76940629089315
11,61.93403982802736
12,61.93403982802736
13,177.33523513549506
14,240.69797460529265
15,262.0616437745358
16,37.16042389681641
17,37.16042389681641
18,106.40114108129703
105,2168.6353963709967
106,0.0
2,4, 1, 4, 0,10, 0.00,60.00,Wednesday
7,641.1230804785632
8,641.1230804785632
9,641.1230804785632
10,487.5983286787697
11,83.56372275046853
12,83.56372275046853
13,312.50259643297576
14,384.67384828713798
15,292.5589972072618
16,50.13823365028111
17,50.13823365028111
18,187.50155785978547
105,576.8902447494017
106,0.0
2,4, 1, 4, 0,11, 0.00,60.00,Wednesday
7,938.8343006790557
8,938.8343006790557
9,938.8343006790557
10,446.23749311812397
11,93.63521980408192
12,93.63521980408192
13,473.1474452950919
14,563.3005804074334
15,267.74249587087436
16,56.181131882449147
17,56.181131882449147
18,283.88846717705516
105,0.0
106,74.36430822921368
2,4, 1, 4, 0,12, 0.00,60.00,Wednesday
7,977.1816590271476
8,977.1816590271476
9,977.1816590271476
10,209.43264536291086
11,90.10639829332379
12,90.10639829332379
13,513.6924310413463
14,586.3089954162884
15,125.65958721774654
16,54.06383897599427
17,54.06383897599427
18,308.21545862480778
105,0.0
106,1925.7777951086796
2,4, 1, 4, 0,13, 0.00,60.00,Wednesday
7,941.9498461956046
8,941.9498461956046
9,941.9498461956046
10,74.17652310713419
11,74.17652310713419
12,196.60974932311226
13,488.13307425388288
14,565.1699077173627
15,44.505913864280518
16,44.505913864280518
17,117.96584959386735
18,292.8798445523297
105,0.0
106,3324.628171283694
2,4, 1, 4, 0,14, 0.00,60.00,Wednesday
7,833.5620198647158
8,833.5620198647158
9,833.5620198647158
10,50.508407683357919
11,50.508407683357919
12,384.506384537499
13,403.20959029756798
14,500.1372119188294
15,30.305044610014755
16,30.305044610014755
17,230.70383072249946
18,241.92575417854077
105,0.0
106,3582.151067198159
2,4, 1, 4, 0,15, 0.00,60.00,Wednesday
7,655.9946821699986
8,655.9946821699986
9,655.9946821699986
10,27.16170878857339
11,27.16170878857339
12,495.0968620211187
13,272.39665305885827
14,393.5968093019991
15,16.297025273144035
16,16.297025273144035
17,297.0581172126712
18,163.43799183531494
105,0.0
106,2919.443741852667
2,4, 1, 4, 0,16, 0.00,60.00,Wednesday
7,398.92303615337519
8,398.92303615337519
9,398.92303615337519
10,12.709308784921168
11,12.709308784921168
12,443.38985044579206
13,120.55251256225496
14,239.35382169202513
15,7.625585270952701
16,7.625585270952701
17,266.0339102674752
18,72.33150753735298
105,0.0
106,1435.69903809011
2,4, 1, 4, 0,17, 0.00,60.00,Wednesday
7,65.57419515262103
8,65.57419515262103
9,65.57419515262103
10,4.382813768233735
11,4.382813768233735
12,96.14637905455359
13,12.55102529289432
14,39.34451709157261
15,2.6296882609402409
16,2.6296882609402409
17,57.687827432732159
18,7.530615175736591
105,0.0
106,18.239133951465186
2,4, 1, 4, 0,18, 0.00,60.00,Wednesday
7,0.0
8,0.0
9,0.0
10,0.0
11,0.0
12,0.0
13,0.0
14,0.0
15,0.0
16,0.0
17,0.0
18,0.0
105,423.17292294071879
106,0.0
2,4, 1, 4, 0,19, 0.00,60.00,Wednesday
7,0.0
8,0.0
9,0.0
10,0.0
11,0.0
12,0.0
13,0.0
14,0.0
15,0.0
16,0.0
17,0.0
18,0.0
105,1789.6479508898403
106,0.0
2,4, 1, 4, 0,20, 0.00,60.00,Wednesday
7,0.0
8,0.0
9,0.0
10,0.0
11,0.0
12,0.0
13,0.0
14,0.0
15,0.0
16,0.0
17,0.0
18,0.0
105,2545.646477895472
106,0.0
2,4, 1, 4, 0,21, 0.00,60.00,Wednesday
7,0.0
8,0.0
9,0.0
10,0.0
11,0.0
12,0.0
13,0.0
14,0.0
15,0.0
16,0.0
17,0.0
18,0.0
105,2961.7261236824697
106,0.0
2,4, 1, 4, 0,22, 0.00,60.00,Wednesday
7,0.0
8,0.0
9,0.0
10,0.0
11,0.0
12,0.0
13,0.0
14,0.0
15,0.0
16,0.0
17,0.0
18,0.0
105,3179.648309555497
106,0.0
2,4, 1, 4, 0,23, 0.00,60.00,Wednesday
7,0.0
8,0.0
9,0.0
10,0.0
11,0.0
12,0.0
13,0.0
14,0.0
15,0.0
16,0.0
17,0.0
18,0.0
105,3241.497355523602
106,0.0
2,4, 1, 4, 0,24, 0.00,60.00,Wednesday
7,0.0
8,0.0
9,0.0
10,0.0
11,0.0
12,0.0
13,0.0
14,0.0
15,0.0
16,0.0
17,0.0
18,0.0
105,3261.3106591012815
106,0.0
2,5, 1, 5, 0, 1, 0.00,60.00,Thursday
7,0.0
8,0.0
9,0.0
10,0.0
11,0.0
12,0.0
13,0.0
14,0.0
15,0.0
16,0.0
17,0.0
18,0.0
105,3273.5718266067356
106,0.0
2,5, 1, 5, 0, 2, 0.00,60.00,Thursday
7,0.0
8,0.0
9,0.0
10,0.0
11,0.0
12,0.0
13,0.0
14,0.0
15,0.0
16,0.0
17,0.0
18,0.0
105,3256.3512912768406
106,0.0
2,5, 1, 5, 0, 3, 0.00,60.00,Thursday
7,0.0
8,0.0
9,0.0
10,0.0
11,0.0
12,0.0
13,0.0
14,0.0
15,0.0
16,0.0
17,0.0
18,0.0
105,3220.9361473637327
106,0.0
2,5, 1, 5, 0, 4, 0.00,60.00,Thursday
7,0.0
8,0.0
9,0.0
10,0.0
11,0.0
12,0.0
13,0.0
14,0.0
15,0.0
16,0.0
17,0.0
18,0.0
105,2714.0975178089284
106,0.0
2,5, 1, 5, 0, 5, 0.00,60.00,Thursday
7,0.0
8,0.0
9,0.0
10,0.0
11,0.0
12,0.0
13,0.0
14,0.0
15,0.0
16,0.0
17,0.0
18,0.0
105,2421.211815030725
106,0.0
2,5, 1, 5, 0, 6, 0.00,60.00,Thursday
7,0.0
8,0.0
9,0.0
10,0.0
11,0.0
12,0.0
13,0.0
14,0.0
15,0.0
16,0.0
17,0.0
18,0.0
105,2545.6915724603705
106,0.0
2,5, 1, 5, 0, 7, 0.00,60.00,Thursday
7,0.0
8,0.0
9,0.0
10,0.0
11,0.0
12,0.0
13,0.0
14,0.0
15,0.0
16,0.0
17,0.0
18,0.0
105,2566.7913876540197
106,0.0
2,5, 1, 5, 0, 8, 0.00,60.00,Thursday
7,136.23886703235176
8,136.23886703235176
9,136.23886703235176
10,195.12961729801774
11,19.016765962827529
12,19.016765962827529
13,43.92389075895143
14,81.74332021941105
15,117.07777037881063
16,11.410059577696519
17,11.410059577696519
18,26.35433445537086
105,2195.3046185898843
106,0.0
2,5, 1, 5, 0, 9, 0.00,60.00,Thursday
7,557.2666388975726
8,557.2666388975726
9,557.2666388975726
10,611.4159714480957
11,69.5100181349498
12,69.5100181349498
13,225.96527055298544
14,334.3599833385436
15,366.84958286885736
16,41.70601088096988
17,41.70601088096988
18,135.57916233179123
105,530.4634899532938
106,0.0
2,5, 1, 5, 0,10, 0.00,60.00,Thursday
7,779.7245448084063
8,779.7245448084063
9,779.7245448084063
10,596.6760592541011
11,86.86558605948673
12,86.86558605948673
13,361.9941828554141
14,467.8347268850438
15,358.0056355524607
16,52.119351635692037
17,52.119351635692037
18,217.19650971324843
105,0.0
106,71.36368538078546
2,5, 1, 5, 0,11, 0.00,60.00,Thursday
7,848.6968533240142
8,848.6968533240142
9,848.6968533240142
10,407.0215708598061
11,85.93213620532089
12,85.93213620532089
13,426.4717168113744
14,509.2181119944085
15,244.2129425158836
16,51.55928172319254
17,51.55928172319254
18,255.8830300868246
105,0.0
106,2000.5167270165653
2,5, 1, 5, 0,12, 0.00,60.00,Thursday
7,841.1672435321722
8,841.1672435321722
9,841.1672435321722
10,182.54393353108808
11,80.09700113098826
12,80.09700113098826
13,440.6393397507315
14,504.70034611930336
15,109.52636011865285
16,48.058200678592957
17,48.058200678592957
18,264.3836038504388
105,0.0
106,3711.15992124348
2,5, 1, 5, 0,13, 0.00,60.00,Thursday
7,842.201967162817
8,842.201967162817
9,842.201967162817
10,65.87490959584619
11,65.87490959584619
12,176.01634143589343
13,435.83988016932178
14,505.32118029769029
15,39.52494575750772
16,39.52494575750772
17,105.60980486153605
18,261.5039281015931
105,0.0
106,4592.078312559219
2,5, 1, 5, 0,14, 0.00,60.00,Thursday
7,769.0716191053507
8,769.0716191053507
9,769.0716191053507
10,46.318433124086499
11,46.318433124086499
12,355.1607627980466
13,371.6650292683849
14,461.4429714632104
15,27.7910598744519
16,27.7910598744519
17,213.09645767882797
18,222.99901756103095
105,0.0
106,4794.468197215817
2,5, 1, 5, 0,15, 0.00,60.00,Thursday
7,624.1459796187129
8,624.1459796187129
9,624.1459796187129
10,25.993281822023996
11,25.993281822023996
12,471.19225789721676
13,259.0657067382461
14,374.4875877712277
15,15.595969093214399
16,15.595969093214399
17,282.71535473833
18,155.43942404294766
105,0.0
106,4184.132899428567
2,5, 1, 5, 0,16, 0.00,60.00,Thursday
7,376.0494000897738
8,376.0494000897738
9,376.0494000897738
10,12.710327400204808
11,12.710327400204808
12,417.5341386676604
13,114.0081701407598
14,225.6296400538643
15,7.626196440122884
16,7.626196440122884
17,250.52048320059624
18,68.40490208445587
105,0.0
106,2752.1173071197536
2,5, 1, 5, 0,17, 0.00,60.00,Thursday
7,60.42885437896383
8,60.42885437896383
9,60.42885437896383
10,4.745425733267185
11,4.745425733267185
12,87.87525859558808
13,12.691570962530657
14,36.25731262737829
15,2.8472554399603107
16,2.8472554399603107
17,52.72515515735284
18,7.614942577518393
105,0.0
106,712.4360079048143
2,5, 1, 5, 0,18, 0.00,60.00,Thursday
7,0.0
8,0.0
9,0.0
10,0.0
11,0.0
12,0.0
13,0.0
14,0.0
15,0.0
16,0.0
17,0.0
18,0.0
105,0.0
106,0.0
2,5, 1, 5, 0,19, 0.00,60.00,Thursday
7,0.0
8,0.0
9,0.0
10,0.0
11,0.0
12,0.0
13,0.0
14,0.0
15,0.0
16,0.0
17,0.0
18,0.0
105,6.155812909000336
106,0.0
2,5, 1, 5, 0,20, 0.00,60.00,Thursday
7,0.0
8,0.0
9,0.0
10,0.0
11,0.0
12,0.0
13,0.0
14,0.0
15,0.0
16,0.0
17,0.0
18,0.0
105,517.1282497276486
106,0.0
2,5, 1, 5, 0,21, 0.00,60.00,Thursday
7,0.0
8,0.0
9,0.0
10,0.0
11,0.0
12,0.0
13,0.0
14,0.0
15,0.0
16,0.0
17,0.0
18,0.0
105,1102.4068428888104
106,0.0
2,5, 1, 5, 0,22, 0.00,60.00,Thursday
7,0.0
8,0.0
9,0.0
10,0.0
11,0.0
12,0.0
13,0.0
14,0.0
15,0.0
16,0.0
17,0.0
18,0.0
105,1445.207692027555
106,0.0
2,5, 1, 5, 0,23, 0.00,60.00,Thursday
7,0.0
8,0.0
9,0.0
10,0.0
11,0.0
12,0.0
13,0.0
14,0.0
15,0.0
16,0.0
17,0.0
18,0.0
105,1633.7793047048103
106,0.0
2,5, 1, 5, 0,24, 0.00,60.00,Thursday
7,0.0
8,0.0
9,0.0
10,0.0
11,0.0
12,0.0
13,0.0
14,0.0
15,0.0
16,0.0
17,0.0