Program Version,EnergyPlus, Version 8.9.0-40101eaafd, YMD=2018.11.09 20:14
1,5,Environment Title[],Latitude[deg],Longitude[deg],Time Zone[],Elevation[m]
2,8,Day of Simulation[],Month[],Day of Month[],DST Indicator[1=yes 0=no],Hour[],StartMinute[],EndMinute[],DayType
3,5,Cumulative Day of Simulation[],Month[],Day of Month[],DST Indicator[1=yes 0=no],DayType  ! When Daily Report Variables Requested
4,2,Cumulative Days of Simulation[],Month[]  ! When Monthly Report Variables Requested
5,1,Cumulative Days of Simulation[] ! When Run Period Report Variables Requested
6,1,Calendar Year of Simulation[] ! When Annual Report Variables Requested
7,1,SOUTH WALL,Surface Outside Face Incident Solar Radiation Rate per Area [W/m2] !Hourly
8,1,SOUTH WINDOW LEFT,Surface Outside Face Incident Solar Radiation Rate per Area [W/m2] !Hourly
9,1,SOUWTH WINDOW RIGHT,Surface Outside Face Incident Solar Radiation Rate per Area [W/m2] !Hourly
10,1,EAST WALL,Surface Outside Face Incident Solar Radiation Rate per Area [W/m2] !Hourly
11,1,NORTH WALL,Surface Outside Face Incident Solar Radiation Rate per Area [W/m2] !Hourly
12,1,WEST WALL,Surface Outside Face Incident Solar Radiation Rate per Area [W/m2] !Hourly
13,1,ROOF,Surface Outside Face Incident Solar Radiation Rate per Area [W/m2] !Hourly
14,1,ZONE 1,Zone Mean Air Temperature [C] !Hourly
End of Data Dictionary
1,ANNUAL,  39.76,-104.86,  -7.00,1611.00
2,1, 1, 1, 0, 1, 0.00,60.00,Sunday
7,0.0
8,0.0
9,0.0
10,0.0
11,0.0
12,0.0
13,0.0
14,14.208183918031154
2,1, 1, 1, 0, 2, 0.00,60.00,Sunday
7,0.0
8,0.0
9,0.0
10,0.0
11,0.0
12,0.0
13,0.0
14,12.426929633922923
2,1, 1, 1, 0, 3, 0.00,60.00,Sunday
7,0.0
8,0.0
9,0.0
10,0.0
11,0.0
12,0.0
13,0.0
14,10.8410641436646
2,1, 1, 1, 0, 4, 0.00,60.00,Sunday
7,0.0
8,0.0
9,0.0
10,0.0
11,0.0
12,0.0
13,0.0
14,9.488868954264394
2,1, 1, 1, 0, 5, 0.00,60.00,Sunday
7,0.0
8,0.0
9,0.0
10,0.0
11,0.0
12,0.0
13,0.0
14,8.332331639620304
2,1, 1, 1, 0, 6, 0.00,60.00,Sunday
7,0.0
8,0.0
9,0.0
10,0.0
11,0.0
12,0.0
13,0.0
14,7.358636721031944
2,1, 1, 1, 0, 7, 0.00,60.00,Sunday
7,0.0
8,0.0
9,0.0
10,0.0
11,0.0
12,0.0
13,0.0
14,6.790821489612262
2,1, 1, 1, 0, 8, 0.00,60.00,Sunday
7,28.26352056874596
8,28.26352056874596
9,28.26352056874596
10,36.11412903353281
11,10.482877605767247
12,10.482877605767247
13,21.39829870367755
14,6.5868305019366499
2,1, 1, 1, 0, 9, 0.00,60.00,Sunday
7,114.47219389202052
8,114.47219389202052
9,114.47219389202052
10,122.38728780904803
11,44.79566112036541
12,44.79566112036541
13,97.31928462571236
14,7.2329292632021
2,1, 1, 1, 0,10, 0.00,60.00,Sunday
7,230.71498352524629
8,230.71498352524629
9,230.71498352524629
10,172.88736484233474
11,61.965361361569247
12,61.965361361569247
13,162.47806674115646
14,8.862608027908431
2,1, 1, 1, 0,11, 0.00,60.00,Sunday
7,783.5297997292837
8,783.5297997292837
9,783.5297997292837
10,370.37701241791447
11,83.91926025643756
12,83.91926025643756
13,397.3659459842511
14,15.76660573831537
2,1, 1, 1, 0,12, 0.00,60.00,Sunday
7,941.6137077749876
8,941.6137077749876
9,941.6137077749876
10,199.66107974333193
11,85.35121578415792
12,85.35121578415792
13,493.0319031372155
14,26.928565959846268
2,1, 1, 1, 0,13, 0.00,60.00,Sunday
7,918.5280554005634
8,918.5280554005634
9,918.5280554005634
10,70.6686357813885
11,70.6686357813885
12,190.77066160202333
13,475.40865410514587
14,36.355487291743148
2,1, 1, 1, 0,14, 0.00,60.00,Sunday
7,825.4710652457992
8,825.4710652457992
9,825.4710652457992
10,49.90819747636143
11,49.90819747636143
12,380.56343892638207
13,399.6040882837648
14,43.74720893532108
2,1, 1, 1, 0,15, 0.00,60.00,Sunday
7,639.4186325876558
8,639.4186325876558
9,639.4186325876558
10,27.82905689339292
11,27.82905689339292
12,482.9635990590676
13,266.31483743041147
14,47.84300918374862
2,1, 1, 1, 0,16, 0.00,60.00,Sunday
7,388.74365142666877
8,388.74365142666877
9,388.74365142666877
10,12.540144485157797
11,12.540144485157797
12,431.61453779664427
13,117.95531329748158
14,48.59309068510578
2,1, 1, 1, 0,17, 0.00,60.00,Sunday
7,58.144904297507668
8,58.144904297507668
9,58.144904297507668
10,4.365064676294259
11,4.365064676294259
12,84.55416967850705
13,12.195584934577699
14,44.83584713574136
2,1, 1, 1, 0,18, 0.00,60.00,Sunday
7,0.0
8,0.0
9,0.0
10,0.0
11,0.0
12,0.0
13,0.0
14,39.23326425023646
2,1, 1, 1, 0,19, 0.00,60.00,Sunday
7,0.0
8,0.0
9,0.0
10,0.0
11,0.0
12,0.0
13,0.0
14,34.342813522538559
2,1, 1, 1, 0,20, 0.00,60.00,Sunday
7,0.0
8,0.0
9,0.0
10,0.0
11,0.0
12,0.0
13,0.0
14,30.15287302184639
2,1, 1, 1, 0,21, 0.00,60.00,Sunday
7,0.0
8,0.0
9,0.0
10,0.0
11,0.0
12,0.0
13,0.0
14,26.125578231370718
2,1, 1, 1, 0,22, 0.00,60.00,Sunday
7,0.0
8,0.0
9,0.0
10,0.0
11,0.0
12,0.0
13,0.0
14,22.672846188806085
2,1, 1, 1, 0,23, 0.00,60.00,Sunday
7,0.0
8,0.0
9,0.0
10,0.0
11,0.0
12,0.0
13,0.0
14,19.554227668215888
2,1, 1, 1, 0,24, 0.00,60.00,Sunday
7,0.0
8,0.0
9,0.0
10,0.0
11,0.0
12,0.0
13,0.0
14,16.63848159589723
2,2, 1, 2, 0, 1, 0.00,60.00,Monday
7,0.0
8,0.0
9,0.0
10,0.0
11,0.0
12,0.0
13,0.0
14,13.766262190854372
2,2, 1, 2, 0, 2, 0.00,60.00,Monday
7,0.0
8,0.0
9,0.0
10,0.0
11,0.0
12,0.0
13,0.0
14,11.153455433842307
2,2, 1, 2, 0, 3, 0.00,60.00,Monday
7,0.0
8,0.0
9,0.0
10,0.0
11,0.0
12,0.0
13,0.0
14,8.801101812193508
2,2, 1, 2, 0, 4, 0.00,60.00,Monday
7,0.0
8,0.0
9,0.0
10,0.0
11,0.0
12,0.0
13,0.0
14,6.510419758936854
2,2, 1, 2, 0, 5, 0.00,60.00,Monday
7,0.0
8,0.0
9,0.0
10,0.0
11,0.0
12,0.0
13,0.0
14,4.417335245285983
2,2, 1, 2, 0, 6, 0.00,60.00,Monday
7,0.0
8,0.0
9,0.0
10,0.0
11,0.0
12,0.0
13,0.0
14,2.505206076225066
2,2, 1, 2, 0, 7, 0.00,60.00,Monday
7,0.0
8,0.0
9,0.0
10,0.0
11,0.0
12,0.0
13,0.0
14,0.7501769521412599
2,2, 1, 2, 0, 8, 0.00,60.00,Monday
7,3.685575585735493
8,3.685575585735493
9,3.685575585735493
10,3.8372620194422586
11,3.3726307274917048
12,3.3726307274917048
13,6.610773005217861
14,-0.7676722075903464
2,2, 1, 2, 0, 9, 0.00,60.00,Monday
7,16.746336379972797
8,16.746336379972797
9,16.746336379972797
10,16.96496488802197
11,14.785904403523653
12,14.785904403523653
13,29.10769335074704
14,-1.984187111512373
2,2, 1, 2, 0,10, 0.00,60.00,Monday
7,28.41980110971879
8,28.41980110971879
9,28.41980110971879
10,27.640807092909115
11,25.43586108141626
12,25.43586108141626
13,49.97894333394428
14,-2.91079776349504
2,2, 1, 2, 0,11, 0.00,60.00,Monday
7,36.747786757659
8,36.747786757659
9,36.747786757659
10,34.817508401370819
11,33.41140331419004
12,33.41140331419004
13,65.3661302104728
14,-3.558937388628287
2,2, 1, 2, 0,12, 0.00,60.00,Monday
7,41.05102126992605
8,41.05102126992605
9,41.05102126992605
10,38.02843059839843
11,37.556505001200509
12,37.556505001200509
13,73.30619678115079
14,-4.122375343765724
2,2, 1, 2, 0,13, 0.00,60.00,Monday
7,40.44941464900862
8,40.44941464900862
9,40.44941464900862
10,36.95679200635734
11,36.95679200635734
12,37.45120684869741
13,72.17892075140493
14,-4.779264592051302
2,2, 1, 2, 0,14, 0.00,60.00,Monday
7,35.08225576057346
8,35.08225576057346
9,35.08225576057346
10,31.751424147839715
11,31.751424147839715
12,33.17848587527144
13,62.23445722890106
14,-5.448912296023211
2,2, 1, 2, 0,15, 0.00,60.00,Monday
7,25.87534589751617
8,25.87534589751617
9,25.87534589751617
10,22.991498656203679
11,22.991498656203679
12,25.137478355992948
13,45.30649727346551
14,-6.096656247343731
2,2, 1, 2, 0,16, 0.00,60.00,Monday
7,13.659462881012875
8,13.659462881012875
9,13.659462881012875
10,11.90837822592866
11,11.90837822592866
12,13.866720218200129
13,23.5382191952095
14,-6.8773787040088989
2,2, 1, 2, 0,17, 0.00,60.00,Monday
7,1.8723035963819517
8,1.8723035963819517
9,1.8723035963819517
10,1.5280669908331955
11,1.5280669908331955
12,2.047041747651215
13,2.9869540282564146
14,-7.884748084260094
2,2, 1, 2, 0,18, 0.00,60.00,Monday
7,0.0
8,0.0
9,0.0
10,0.0
11,0.0
12,0.0
13,0.0
14,-8.945772496439862
2,2, 1, 2, 0,19, 0.00,60.00,Monday
7,0.0
8,0.0
9,0.0
10,0.0
11,0.0
12,0.0
13,0.0
14,-9.879133860429964
2,2, 1, 2, 0,20, 0.00,60.00,Monday
7,0.0
8,0.0
9,0.0
10,0.0
11,0.0
12,0.0
13,0.0
14,-10.706733317785809
2,2, 1, 2, 0,21, 0.00,60.00,Monday
7,0.0
8,0.0
9,0.0
10,0.0
11,0.0
12,0.0
13,0.0
14,-11.468557285909064
2,2, 1, 2, 0,22, 0.00,60.00,Monday
7,0.0
8,0.0
9,0.0
10,0.0
11,0.0
12,0.0
13,0.0
14,-12.160670021827576
2,2, 1, 2, 0,23, 0.00,60.00,Monday
7,0.0
8,0.0
9,0.0
10,0.0
11,0.0
12,0.0
13,0.0
14,-12.847915656953493
2,2, 1, 2, 0,24, 0.00,60.00,Monday
7,0.0
8,0.0
9,0.0
10,0.0
11,0.0
12,0.0
13,0.0
14,-13.425662752316859
2,3, 1, 3, 0, 1, 0.00,60.00,Tuesday
7,0.0
8,0.0
9,0.0
10,0.0
11,0.0
12,0.0
13,0.0
14,-13.901812944825992
2,3, 1, 3, 0, 2, 0.00,60.00,Tuesday
7,0.0
8,0.0
9,0.0
10,0.0
11,0.0
12,0.0
13,0.0
14,-14.341126286532882
2,3, 1, 3, 0, 3, 0.00,60.00,Tuesday
7,0.0
8,0.0
9,0.0
10,0.0
11,0.0
12,0.0
13,0.0
14,-14.661510226289974
2,3, 1, 3, 0, 4, 0.00,60.00,Tuesday
7,0.0
8,0.0
9,0.0
10,0.0
11,0.0
12,0.0
13,0.0
14,-14.998141893712213
2,3, 1, 3, 0, 5, 0.00,60.00,Tuesday
7,0.0
8,0.0
9,0.0
10,0.0
11,0.0
12,0.0
13,0.0
14,-15.385328062239772
2,3, 1, 3, 0, 6, 0.00,60.00,Tuesday
7,0.0
8,0.0
9,0.0
10,0.0
11,0.0
12,0.0
13,0.0
14,-15.807561113302008
2,3, 1, 3, 0, 7, 0.00,60.00,Tuesday
7,0.0
8,0.0
9,0.0
10,0.0
11,0.0
12,0.0
13,0.0
14,-16.20618748085097
2,3, 1, 3, 0, 8, 0.00,60.00,Tuesday
7,20.77756907575132
8,20.77756907575132
9,20.77756907575132
10,25.780807643616606
11,9.591027988312204
12,9.591027988312204
13,18.960113642802509
14,-16.45398800068883
2,3, 1, 3, 0, 9, 0.00,60.00,Tuesday
7,82.177560270035
8,82.177560270035
9,82.177560270035
10,86.96600437879053
11,40.11750442688381
12,40.11750442688381
13,82.44544727282694
14,-16.047634857557655
2,3, 1, 3, 0,10, 0.00,60.00,Tuesday
7,72.2067464656683
8,72.2067464656683
9,72.2067464656683
10,67.54486420302954
11,54.75871108341754
12,54.75871108341754
13,110.18367123948542
14,-15.501078046867545
2,3, 1, 3, 0,11, 0.00,60.00,Tuesday
7,270.28316196918589
8,270.28316196918589
9,270.28316196918589
10,139.1021727518089
11,71.55567526082106
12,71.55567526082106
13,198.95346679603726
14,-14.530674970875353
2,3, 1, 3, 0,12, 0.00,60.00,Tuesday
7,882.6331670974042
8,882.6331670974042
9,882.6331670974042
10,186.231877775416
11,82.55830872203642
12,82.55830872203642
13,463.45462058570538
14,-7.0044880573357279
2,3, 1, 3, 0,13, 0.00,60.00,Tuesday
7,823.9468838637476
8,823.9468838637476
9,823.9468838637476
10,73.88574847200647
11,73.88574847200647
12,175.66350043990139
13,430.29024856708909
14,3.3870185257829625
2,3, 1, 3, 0,14, 0.00,60.00,Tuesday
7,560.2104300857388
8,560.2104300857388
9,560.2104300857388
10,72.55551730737791
11,72.55551730737791
12,279.7200315453252
13,292.07556558859286
14,8.89651382306724
2,3, 1, 3, 0,15, 0.00,60.00,Tuesday
7,478.9797047324094
8,478.9797047324094
9,478.9797047324094
10,51.34371771446463
11,51.34371771446463
12,373.1551681048486
13,212.86529627588897
14,11.814415530120238
2,3, 1, 3, 0,16, 0.00,60.00,Tuesday
7,354.1571384870621
8,354.1571384870621
9,354.1571384870621
10,17.683204751513825
11,17.683204751513825
12,393.52603001150148
13,109.94136856311455
14,13.248828936779575
2,3, 1, 3, 0,17, 0.00,60.00,Tuesday
7,49.635158386238447
8,49.635158386238447
9,49.635158386238447
10,4.675862374126925
11,4.675862374126925
12,71.32028918945182
13,11.748625204986358
14,10.82787021098893
2,3, 1, 3, 0,18, 0.00,60.00,Tuesday
7,0.0
8,0.0
9,0.0
10,0.0
11,0.0
12,0.0
13,0.0
14,6.609747794805161
2,3, 1, 3, 0,19, 0.00,60.00,Tuesday
7,0.0
8,0.0
9,0.0
10,0.0
11,0.0
12,0.0
13,0.0
14,3.0413474479603175
2,3, 1, 3, 0,20, 0.00,60.00,Tuesday
7,0.0
8,0.0
9,0.0
10,0.0
11,0.0
12,0.0
13,0.0
14,-0.1900737136212331
2,3, 1, 3, 0,21, 0.00,60.00,Tuesday
7,0.0
8,0.0
9,0.0
10,0.0
11,0.0
12,0.0
13,0.0
14,-2.85782887494479
2,3, 1, 3, 0,22, 0.00,60.00,Tuesday
7,0.0
8,0.0
9,0.0
10,0.0
11,0.0
12,0.0
13,0.0
14,-4.879015957482569
2,3, 1, 3, 0,23, 0.00,60.00,Tuesday
7,0.0
8,0.0
9,0.0
10,0.0
11,0.0
12,0.0
13,0.0
14,-6.913187657012692
2,3, 1, 3, 0,24, 0.00,60.00,Tuesday
7,0.0
8,0.0
9,0.0
10,0.0
11,0.0
12,0.0
13,0.0
14,-8.726522536271244
2,4, 1, 4, 0, 1, 0.00,60.00,Wednesday
7,0.0
8,0.0
9,0.0
10,0.0
11,0.0
12,0.0
13,0.0
14,-10.455017526957708
2,4, 1, 4, 0, 2, 0.00,60.00,Wednesday
7,0.0
8,0.0
9,0.0
10,0.0
11,0.0
12,0.0
13,0.0
14,-12.10873745365646
2,4, 1, 4, 0, 3, 0.00,60.00,Wednesday
7,0.0
8,0.0
9,0.0
10,0.0
11,0.0
12,0.0
13,0.0
14,-13.53076378889126
2,4, 1, 4, 0, 4, 0.00,60.00,Wednesday
7,0.0
8,0.0
9,0.0
10,0.0
11,0.0
12,0.0
13,0.0
14,-14.661253116580167
2,4, 1, 4, 0, 5, 0.00,60.00,Wednesday
7,0.0
8,0.0
9,0.0
10,0.0
11,0.0
12,0.0
13,0.0
14,-15.62876283734873
2,4, 1, 4, 0, 6, 0.00,60.00,Wednesday
7,0.0
8,0.0
9,0.0
10,0.0
11,0.0
12,0.0
13,0.0
14,-16.445181018163497
2,4, 1, 4, 0, 7, 0.00,60.00,Wednesday
7,0.0
8,0.0
9,0.0
10,0.0
11,0.0
12,0.0
13,0.0
14,-17.156159469874319
2,4, 1, 4, 0, 8, 0.00,60.00,Wednesday
7,112.09760613574241
8,112.09760613574241
9,112.09760613574241
10,159.9461364017103
11,17.38902460250077
12,17.38902460250077
13,38.9809075053775
14,-17.405884066408939
2,4, 1, 4, 0, 9, 0.00,60.00,Wednesday
7,401.16329100882117
8,401.16329100882117
9,401.16329100882117
10,436.76940629089315
11,61.93403982802736
12,61.93403982802736
13,177.33523513549506
14,-14.789112791473448
2,4, 1, 4, 0,10, 0.00,60.00,Wednesday
7,641.1230804785632
8,641.1230804785632
9,641.1230804785632
10,487.5983286787697
11,83.56372275046853
12,83.56372275046853
13,312.50259643297576
14,-8.306727398936332
2,4, 1, 4, 0,11, 0.00,60.00,Wednesday
7,938.8343006790557
8,938.8343006790557
9,938.8343006790557
10,446.23749311812397
11,93.63521980408192
12,93.63521980408192
13,473.1474452950919
14,1.4757868155613
2,4, 1, 4, 0,12, 0.00,60.00,Wednesday
7,977.1816590271476
8,977.1816590271476
9,977.1816590271476
10,209.43264536291086
11,90.10639829332379
12,90.10639829332379
13,513.6924310413463
14,12.159756594495816
2,4, 1, 4, 0,13, 0.00,60.00,Wednesday
7,941.9498461956046
8,941.9498461956046
9,941.9498461956046
10,74.17652310713419
11,74.17652310713419
12,196.60974932311226
13,488.13307425388288
14,21.145781536423614
2,4, 1, 4, 0,14, 0.00,60.00,Wednesday
7,833.5620198647158
8,833.5620198647158
9,833.5620198647158
10,50.508407683357919
11,50.508407683357919
12,384.506384537499
13,403.20959029756798
14,28.00287536880792
2,4, 1, 4, 0,15, 0.00,60.00,Wednesday
7,655.9946821699986
8,655.9946821699986
9,655.9946821699986
10,27.16170878857339
11,27.16170878857339
12,495.0968620211187
13,272.39665305885827
14,32.033140189987317
2,4, 1, 4, 0,16, 0.00,60.00,Wednesday
7,398.92303615337519
8,398.92303615337519
9,398.92303615337519
10,12.709308784921168
11,12.709308784921168
12,443.38985044579206
13,120.55251256225496
14,32.45275825934917
2,4, 1, 4, 0,17, 0.00,60.00,Wednesday
7,65.57419515262103
8,65.57419515262103
9,65.57419515262103
10,4.382813768233735
11,4.382813768233735
12,96.14637905455359
13,12.55102529289432
14,28.09271792672207
2,4, 1, 4, 0,18, 0.00,60.00,Wednesday
7,0.0
8,0.0
9,0.0
10,0.0
11,0.0
12,0.0
13,0.0
14,21.706295207528059
2,4, 1, 4, 0,19, 0.00,60.00,Wednesday
7,0.0
8,0.0
9,0.0
10,0.0
11,0.0
12,0.0
13,0.0
14,15.94941272821757
2,4, 1, 4, 0,20, 0.00,60.00,Wednesday
7,0.0
8,0.0
9,0.0
10,0.0
11,0.0
12,0.0
13,0.0
14,11.398560275364187
2,4, 1, 4, 0,21, 0.00,60.00,Wednesday
7,0.0
8,0.0
9,0.0
10,0.0
11,0.0
12,0.0
13,0.0
14,7.084597613643224
2,4, 1, 4, 0,22, 0.00,60.00,Wednesday
7,0.0
8,0.0
9,0.0
10,0.0
11,0.0
12,0.0
13,0.0
14,3.610000032765549
2,4, 1, 4, 0,23, 0.00,60.00,Wednesday
7,0.0
8,0.0
9,0.0
10,0.0
11,0.0
12,0.0
13,0.0
14,0.6457651609759643
2,4, 1, 4, 0,24, 0.00,60.00,Wednesday
7,0.0
8,0.0
9,0.0
10,0.0
11,0.0
12,0.0
13,0.0
14,-1.7555999197333093
2,5, 1, 5, 0, 1, 0.00,60.00,Thursday
7,0.0
8,0.0
9,0.0
10,0.0
11,0.0
12,0.0
13,0.0
14,-3.7576163331417238
2,5, 1, 5, 0, 2, 0.00,60.00,Thursday
7,0.0
8,0.0
9,0.0
10,0.0
11,0.0
12,0.0
13,0.0
14,-5.617965903475023
2,5, 1, 5, 0, 3, 0.00,60.00,Thursday
7,0.0
8,0.0
9,0.0
10,0.0
11,0.0
12,0.0
13,0.0
14,-7.009480099717921
2,5, 1, 5, 0, 4, 0.00,60.00,Thursday
7,0.0
8,0.0
9,0.0
10,0.0
11,0.0
12,0.0
13,0.0
14,-6.947769969648773
2,5, 1, 5, 0, 5, 0.00,60.00,Thursday
7,0.0
8,0.0
9,0.0
10,0.0
11,0.0
12,0.0
13,0.0
14,-6.2624971517661349
2,5, 1, 5, 0, 6, 0.00,60.00,Thursday
7,0.0
8,0.0
9,0.0
10,0.0
11,0.0
12,0.0
13,0.0
14,-6.884179299324542
2,5, 1, 5, 0, 7, 0.00,60.00,Thursday
7,0.0
8,0.0
9,0.0
10,0.0
11,0.0
12,0.0
13,0.0
14,-7.122556268930264
2,5, 1, 5, 0, 8, 0.00,60.00,Thursday
7,136.23886703235176
8,136.23886703235176
9,136.23886703235176
10,195.12961729801774
11,19.016765962827529
12,19.016765962827529
13,43.92389075895143
14,-6.718087832864354
2,5, 1, 5, 0, 9, 0.00,60.00,Thursday
7,557.2666388975726
8,557.2666388975726
9,557.2666388975726
10,611.4159714480957
11,69.5100181349498
12,69.5100181349498
13,225.96527055298544
14,-1.8867109468850152
2,5, 1, 5, 0,10, 0.00,60.00,Thursday
7,779.7245448084063
8,779.7245448084063
9,779.7245448084063
10,596.6760592541011
11,86.86558605948673
12,86.86558605948673
13,361.9941828554141
14,7.363446026803012
2,5, 1, 5, 0,11, 0.00,60.00,Thursday
7,848.6968533240142
8,848.6968533240142
9,848.6968533240142
10,407.0215708598061
11,85.93213620532089
12,85.93213620532089
13,426.4717168113744
14,17.86972868920805
2,5, 1, 5, 0,12, 0.00,60.00,Thursday
7,841.1672435321722
8,841.1672435321722
9,841.1672435321722
10,182.54393353108808
11,80.09700113098826
12,80.09700113098826
13,440.6393397507315
14,27.078670636806878
2,5, 1, 5, 0,13, 0.00,60.00,Thursday
7,842.201967162817
8,842.201967162817
9,842.201967162817
10,65.87490959584619
11,65.87490959584619
12,176.01634143589343
13,435.83988016932178
14,35.143700517627618
2,5, 1, 5, 0,14, 0.00,60.00,Thursday
7,769.0716191053507
8,769.0716191053507
9,769.0716191053507
10,46.318433124086499
11,46.318433124086499
12,355.1607627980466
13,371.6650292683849
14,41.88300147764026
2,5, 1, 5, 0,15, 0.00,60.00,Thursday
7,624.1459796187129
8,624.1459796187129
9,624.1459796187129
10,25.993281822023996
11,25.993281822023996
12,471.19225789721676
13,259.0657067382461
14,45.743625735855378
2,5, 1, 5, 0,16, 0.00,60.00,Thursday
7,376.0494000897738
8,376.0494000897738
9,376.0494000897738
10,12.710327400204808
11,12.710327400204808
12,417.5341386676604
13,114.0081701407598
14,46.25402618320781
2,5, 1, 5, 0,17, 0.00,60.00,Thursday
7,60.42885437896383
8,60.42885437896383
9,60.42885437896383
10,4.745425733267185
11,4.745425733267185
12,87.87525859558808
13,12.691570962530657
14,42.598335161379967
2,5, 1, 5, 0,18, 0.00,60.00,Thursday
7,0.0
8,0.0
9,0.0
10,0.0
11,0.0
12,0.0
13,0.0
14,36.75167775363256
2,5, 1, 5, 0,19, 0.00,60.00,Thursday
7,0.0
8,0.0
9,0.0
10,0.0
11,0.0
12,0.0
13,0.0
14,31.41548283138726
2,5, 1, 5, 0,20, 0.00,60.00,Thursday
7,0.0
8,0.0
9,0.0
10,0.0
11,0.0
12,0.0
13,0.0
14,26.814295853372493
2,5, 1, 5, 0,21, 0.00,60.00,Thursday
7,0.0
8,0.0
9,0.0
10,0.0
11,0.0
12,0.0
13,0.0
14,22.821710666352226
2,5, 1, 5, 0,22, 0.00,60.00,Thursday
7,0.0
8,0.0
9,0.0
10,0.0
11,0.0
12,0.0
13,0.0
14,19.41137720676032
2,5, 1, 5, 0,23, 0.00,60.00,Thursday
7,0.0
8,0.0
9,0.0
10,0.0
11,0.0
12,0.0
13,0.0
14,16.427162624653695
2,5, 1, 5, 0,24, 0.00,60.00,Thursday
7,0.0
8,0.0
9,0.0
10,0.0
11,0.0
12,0.0
13,0.0
14,14.022877349451619
2,6, 1, 6, 0, 1, 0.00,60.00,Friday
7,0.0
8,0.0
9,0.0
10,0.0
11,0.0
12,0.0
13,0.0
14,11.943385659968247
2,6, 1, 6, 0, 2, 0.00,60.00,Friday
7,0.0
8,0.0
9,0.0
10,0.0
11,0.0
12,0.0
13,0.0
14,9.88541738651433
2,6, 1, 6, 0, 3, 0.00,60.00,Friday
7,0.0
8,0.0
9,0.0
10,0.0
11,0.0
12,0.0
13,0.0
14,8.379821413218718
2,6, 1, 6, 0, 4, 0.00,60.00,Friday
7,0.0
8,0.0
9,0.0
10,0.0
11,0.0
12,0.0
13,0.0
14,7.513818060595317
2,6, 1, 6, 0, 5, 0.00,60.00,Friday
7,0.0
8,0.0
9,0.0
10,0.0
11,0.0
12,0.0
13,0.0
14,6.512533550289207
2,6, 1, 6, 0, 6, 0.00,60.00,Friday
7,0.0
8,0.0
9,0.0
10,0.0
11,0.0
12,0.0
13,0.0
14,5.267184640285524
2,6, 1, 6, 0, 7, 0.00,60.00,Friday
7,0.0
8,0.0
9,0.0
10,0.0
11,0.0
12,0.0
13,0.0
14,4.376978533490091
2,6, 1, 6, 0, 8, 0.00,60.00,Friday
7,147.24484661400443
8,147.24484661400443
9,147.24484661400443
10,212.04807234465194
11,19.882204919465815
12,19.882204919465815
13,46.79471494375805
14,4.069549238147259
2,6, 1, 6, 0, 9, 0.00,60.00,Friday
7,582.2555830370459
8,582.2555830370459
9,582.2555830370459
10,640.6985560869957
11,71.21231216009849
12,71.21231216009849
13,234.83180344074217
14,8.402364022601774
2,6, 1, 6, 0,10, 0.00,60.00,Friday
7,784.4576329282963
8,784.4576329282963
9,784.4576329282963
10,599.9546139353865
11,87.42674029246757
12,87.42674029246757
13,364.47952442525237
14,16.966123378243567
2,6, 1, 6, 0,11, 0.00,60.00,Friday
7,914.4639064511971
8,914.4639064511971
9,914.4639064511971
10,436.712120211114
11,91.22704718605738
12,91.22704718605738
13,460.0550333567347
14,27.297653309173936
2,6, 1, 6, 0,12, 0.00,60.00,Friday
7,943.3608391250195
8,943.3608391250195
9,943.3608391250195
10,202.58565584555186
11,87.89719053874795
12,87.89719053874795
13,496.04196416068057
14,37.00217046194272
2,6, 1, 6, 0,13, 0.00,60.00,Friday
7,940.6963296770733
8,940.6963296770733
9,940.6963296770733
10,74.69541026028679
11,74.69541026028679
12,197.04980507336445
13,487.55363692381345
14,45.909190289461
2,6, 1, 6, 0,14, 0.00,60.00,Friday
7,831.2275052678781
8,831.2275052678781
9,831.2275052678781
10,50.13698778067427
11,50.13698778067427
12,382.9477637715902
13,401.79526767025626
14,52.54557825381147
2,6, 1, 6, 0,15, 0.00,60.00,Friday
7,632.8653329535197
8,632.8653329535197
9,632.8653329535197
10,26.61797315463747
11,26.61797315463747
12,476.6699919031953
13,262.9303586869781
14,55.908729639521329
2,6, 1, 6, 0,16, 0.00,60.00,Friday
7,360.7817430124345
8,360.7817430124345
9,360.7817430124345
10,14.913168369089638
11,14.913168369089638
12,400.12754233714989
13,110.58346948492323
14,55.570551515651477
2,6, 1, 6, 0,17, 0.00,60.00,Friday
7,60.36079795433977
8,60.36079795433977
9,60.36079795433977
10,4.941215567613409
11,4.941215567613409
12,87.75335102807523
13,12.76627935622771
14,50.8221686041006
2,6, 1, 6, 0,18, 0.00,60.00,Friday
7,0.0
8,0.0
9,0.0
10,0.0
11,0.0
12,0.0
13,0.0
14,44.24231077937533
2,6, 1, 6, 0,19, 0.00,60.00,Friday
7,0.0
8,0.0
9,0.0
10,0.0
11,0.0
12,0.0
13,0.0
14,38.469861199940698
2,6, 1, 6, 0,20, 0.00,60.00,Friday
7,0.0
8,0.0
9,0.0
10,0.0
11,0.0
12,0.0
13,0.0
14,33.33226287139122
2,6, 1, 6, 0,21, 0.00,60.00,Friday
7,0.0
8,0.0
9,0.0
10,0.0
11,0.0
12,0.0
13,0.0
14,29.060210173072968
2,6, 1, 6, 0,22, 0.00,60.00,Friday
7,0.0
8,0.0
9,0.0
10,0.0
11,0.0
12,0.0
13,0.0
14,25.267976971025328
2,6, 1, 6, 0,23, 0.00,60.00,Friday
7,0.0
8,0.0
9,0.0
10,0.0
11,0.0
12,0.0
13,0.0
14,21.926118337178339
2,6, 1, 6, 0,24, 0.00,60.00,Friday
7,0.0
8,0.0
9,0.0
10,0.0
11,0.0
12,0.0
13,0.0
14,19.35810420648617
2,7, 1, 7, 0, 1, 0.00,60.00,Saturday
7,0.0
8,0.0
9,0.0
10,0.0
11,0.0
12,0.0
13,0.0
14,17.164499662282027
2,7, 1, 7, 0, 2, 0.00,60.00,Saturday
7,0.0
8,0.0
9,0.0
10,0.0
11,0.0
12,0.0
13,0.0
14,14.890734549096738
2,7, 1, 7, 0, 3, 0.00,60.00,Saturday
7,0.0
8,0.0
9,0.0
10,0.0
11,0.0
12,0.0
13,0.0
14,12.93731950076617
2,7, 1, 7, 0, 4, 0.00,60.00,Saturday
7,0.0
8,0.0
9,0.0
10,0.0
11,0.0
12,0.0
13,0.0
14,10.849397689816211
2,7, 1, 7, 0, 5, 0.00,60.00,Saturday
7,0.0
8,0.0
9,0.0
10,0.0
11,0.0
12,0.0
13,0.0
14,9.135311212046677
2,7, 1, 7, 0, 6, 0.00,60.00,Saturday
7,0.0
8,0.0
9,0.0
10,0.0
11,0.0
12,0.0
13,0.0
14,7.74969249489217
2,7, 1, 7, 0, 7, 0.00,60.00,Saturday
7,0.0
8,0.0
9,0.0
10,0.0
11,0.0
12,0.0
13,0.0
14,6.5477860547229549
2,7, 1, 7, 0, 8, 0.00,60.00,Saturday
7,147.290972863003
8,147.290972863003
9,147.290972863003
10,211.9080465809495
11,20.242605590903105
12,20.242605590903105
13,47.67131034943448
14,6.136429048736472
2,7, 1, 7, 0, 9, 0.00,60.00,Saturday
7,605.5683569205414
8,605.5683569205414
9,605.5683569205414
10,666.2371918065635
11,74.27160577967955
12,74.27160577967955
13,246.14011859936725
14,10.349632148244695
2,7, 1, 7, 0,10, 0.00,60.00,Saturday
7,841.6478692752943
8,841.6478692752943
9,841.6478692752943
10,644.4554695023987
11,94.41752987322909
12,94.41752987322909
13,394.0415310075481
14,19.30616816909373
2,7, 1, 7, 0,11, 0.00,60.00,Saturday
7,960.8416298316206
8,960.8416298316206
9,960.8416298316206
10,459.57206924360528
11,96.27059969158076
12,96.27059969158076
13,484.72559571873509
14,29.619931888688808
2,7, 1, 7, 0,12, 0.00,60.00,Saturday
7,981.3713380065536
8,981.3713380065536
9,981.3713380065536
10,211.8531451046392
11,91.84774076051503
12,91.84774076051503
13,516.5687713537026
14,39.181401660190548
2,7, 1, 7, 0,13, 0.00,60.00,Saturday
7,944.813670602601
8,944.813670602601
9,944.813670602601
10,75.56192145385696
11,75.56192145385696
12,198.06311389973014
13,489.8725371086532
14,47.08538661481947
2,7, 1, 7, 0,14, 0.00,60.00,Saturday
7,835.9354475794314
8,835.9354475794314
9,835.9354475794314
10,50.05025896621497
11,50.05025896621497
12,385.2519767452504
13,403.74713897597078
14,52.62531321994425
2,7, 1, 7, 0,15, 0.00,60.00,Saturday
7,661.013155723317
8,661.013155723317
9,661.013155723317
10,27.23631635899607
11,27.23631635899607
12,498.96022427883215
13,273.966605291971
14,55.41105793654833
2,7, 1, 7, 0,16, 0.00,60.00,Saturday
7,406.44943607517259
8,406.44943607517259
9,406.44943607517259
10,13.303242285992543
11,13.303242285992543
12,451.93289437727187
13,122.6062195470334
14,54.97147688425845
2,7, 1, 7, 0,17, 0.00,60.00,Saturday
7,69.58768152335326
8,69.58768152335326
9,69.58768152335326
10,4.5048242205910509
11,4.5048242205910509
12,102.22478410977785
13,13.026107227819907
14,50.27693428102056
2,7, 1, 7, 0,18, 0.00,60.00,Saturday
7,0.0
8,0.0
9,0.0
10,0.0
11,0.0
12,0.0
13,0.0
14,43.55215830537255
2,7, 1, 7, 0,19, 0.00,60.00,Saturday
7,0.0
8,0.0
9,0.0
10,0.0
11,0.0
12,0.0
13,0.0
14,37.59886876008053
2,7, 1, 7, 0,20, 0.00,60.00,Saturday
7,0.0
8,0.0
9,0.0
10,0.0
11,0.0
12,0.0
13,0.0
14,32.1454445563841
2,7, 1, 7, 0,21, 0.00,60.00,Saturday
7,0.0
8,0.0
9,0.0
10,0.0
11,0.0
12,0.0
13,0.0
14,27.558925338359726
2,7, 1, 7, 0,22, 0.00,60.00,Saturday
7,0.0
8,0.0
9,0.0
10,0.0
11,0.0
12,0.0
13,0.0
14,23.19944127625604
2,7, 1, 7, 0,23, 0.00,60.00,Saturday
7,0.0
8,0.0
9,0.0
10,0.0
11,0.0
12,0.0
13,0.0
14,19.620822442946463
2,7, 1, 7, 0,24, 0.00,60.00,Saturday
7,0.0
8,0.0
9,0.0
10,0.0
11,0.0
12,0.0
13,0.0
14,16.441293908641528
2,8, 1, 8, 0, 1, 0.00,60.00,Sunday
7,0.0
8,0.0
9,0.0
10,0.0
11,0.0
12,0.0
13,0.0
14,13.717593267465285
2,8, 1, 8, 0, 2, 0.00,60.00,Sunday
7,0.0
8,0.0
9,0.0
10,0.0
11,0.0
12,0.0
13,0.0
14,11.590597274297874
2,8, 1, 8, 0, 3, 0.00,60.00,Sunday
7,0.0
8,0.0
9,0.0
10,0.0
11,0.0
12,0.0
13,0.0
14,9.566262429327463
2,8, 1, 8, 0, 4, 0.00,60.00,Sunday
7,0.0
8,0.0
9,0.0
10,0.0
11,0.0
12,0.0
13,0.0
14,7.72814559600733
2,8, 1, 8, 0, 5, 0.00,60.00,Sunday
7,0.0
8,0.0
9,0.0
10,0.0
11,0.0
12,0.0
13,0.0
14,6.469795442041216
2,8, 1, 8, 0, 6, 0.00,60.00,Sunday
7,0.0
8,0.0
9,0.0
10,0.0
11,0.0
12,0.0
13,0.0
14,5.432050905021612
2,8, 1, 8, 0, 7, 0.00,60.00,Sunday
7,0.0
8,0.0
9,0.0
10,0.0
11,0.0
12,0.0
13,0.0
14,4.41455487081509
2,8, 1, 8, 0, 8, 0.00,60.00,Sunday
7,129.67097284365986
8,129.67097284365986
9,129.67097284365986
10,186.3497986044442
11,18.746412837551455
12,18.746412837551455
13,43.513206025484908
14,4.004290380954689
2,8, 1, 8, 0, 9, 0.00,60.00,Sunday
7,527.6356197642579
8,527.6356197642579
9,527.6356197642579
10,579.0553775009776
11,69.19773756409954
12,69.19773756409954
13,218.24633916802467
14,7.474324155403666
2,8, 1, 8, 0,10, 0.00,60.00,Sunday
7,787.0694606572893
8,787.0694606572893
9,787.0694606572893
10,601.9382916913489
11,88.3224015876541
12,88.3224015876541
13,366.63937455597047
14,15.931324728738016
2,8, 1, 8, 0,11, 0.00,60.00,Sunday
7,939.5140047157596
8,939.5140047157596
9,939.5140047157596
10,449.12538230248938
11,94.38285323576818
12,94.38285323576818
13,473.7299483300303
14,26.046680960388089
2,8, 1, 8, 0,12, 0.00,60.00,Sunday
7,980.9556342378423
8,980.9556342378423
9,980.9556342378423
10,212.1592081684353
11,92.32250185669251
12,92.32250185669251
13,516.5974521438153
14,35.79851688714983
2,8, 1, 8, 0,13, 0.00,60.00,Sunday
7,945.8206321360663
8,945.8206321360663
9,945.8206321360663
10,75.82710001775618
11,75.82710001775618
12,198.38365314175537
13,490.37199037245616
14,44.264222064499808
2,8, 1, 8, 0,14, 0.00,60.00,Sunday
7,837.1272404730275
8,837.1272404730275
9,837.1272404730275
10,50.31136805107986
11,50.31136805107986
12,385.912601546043
13,404.2394816647808
14,50.255740871140407
2,8, 1, 8, 0,15, 0.00,60.00,Sunday
7,663.0323306611191
8,663.0323306611191
9,663.0323306611191
10,27.527080338498054
11,27.527080338498054
12,500.58059851069018
13,274.70212194052808
14,53.70696908006391
2,8, 1, 8, 0,16, 0.00,60.00,Sunday
7,411.551149558088
8,411.551149558088
9,411.551149558088
10,13.269891525711345
11,13.269891525711345
12,458.1323380463564