Program Version,EnergyPlus, Version 8.8.0-7c3bbe4830, YMD=2018.12.24 21:13
1,5,Environment Title[],Latitude[deg],Longitude[deg],Time Zone[],Elevation[m]
2,6,Day of Simulation[],Month[],Day of Month[],DST Indicator[1=yes 0=no],Hour[],StartMinute[],EndMinute[],DayType
3,3,Cumulative Day of Simulation[],Month[],Day of Month[],DST Indicator[1=yes 0=no],DayType  ! When Daily Report Variables Requested
4,2,Cumulative Days of Simulation[],Month[]  ! When Monthly Report Variables Requested
5,1,Cumulative Days of Simulation[] ! When Run Period Report Variables Requested
72,11,ZONE 1,Zone Mean Air Temperature [C] !RunPeriod [Value,Min,Month,Day,Hour,Minute,Max,Month,Day,Hour,Minute]
104,1,EMS,beamSolarOnDesk [] !TimeStep
239,11,ZONE 1 IDEAL LOADS AIR SYSTEM,Zone Ideal Loads Zone Total Heating Energy [J] !RunPeriod [Value,Min,Month,Day,Hour,Minute,Max,Month,Day,Hour,Minute]
240,11,ZONE 1 IDEAL LOADS AIR SYSTEM,Zone Ideal Loads Zone Total Cooling Energy [J] !RunPeriod [Value,Min,Month,Day,Hour,Minute,Max,Month,Day,Hour,Minute]
241,11,ZONE 1 IDEAL LOADS AIR SYSTEM,Zone Ideal Loads Zone Sensible Heating Rate [W] !RunPeriod [Value,Min,Month,Day,Hour,Minute,Max,Month,Day,Hour,Minute]
242,11,ZONE 1 IDEAL LOADS AIR SYSTEM,Zone Ideal Loads Zone Sensible Cooling Rate [W] !RunPeriod [Value,Min,Month,Day,Hour,Minute,Max,Month,Day,Hour,Minute]
13,11,Electricity:Facility [J] !RunPeriod [Value,Min,Month,Day,Hour,Minute,Max,Month,Day,Hour,Minute]
182,11,DistrictHeating:Facility [J] !RunPeriod [Value,Min,Month,Day,Hour,Minute,Max,Month,Day,Hour,Minute]
213,11,DistrictCooling:Facility [J] !RunPeriod [Value,Min,Month,Day,Hour,Minute,Max,Month,Day,Hour,Minute]
End of Data Dictionary
1,ANNUAL,  39.76,-104.86,  -7.00,1611.00
2,1, 1, 1, 0, 1, 0.00,15.00,Sunday
104,0.4236900503782224
2,1, 1, 1, 0, 1,15.00,30.00,Sunday
104,0.4236900503782224
2,1, 1, 1, 0, 1,30.00,45.00,Sunday
104,0.4236900503782224
2,1, 1, 1, 0, 1,45.00,60.00,Sunday
104,0.4236900503782224
2,1, 1, 1, 0, 2, 0.00,15.00,Sunday
104,0.4236900503782224
2,1, 1, 1, 0, 2,15.00,30.00,Sunday
104,0.4236900503782224
2,1, 1, 1, 0, 2,30.00,45.00,Sunday
104,0.4236900503782224
2,1, 1, 1, 0, 2,45.00,60.00,Sunday
104,0.4236900503782224
2,1, 1, 1, 0, 3, 0.00,15.00,Sunday
104,0.4236900503782224
2,1, 1, 1, 0, 3,15.00,30.00,Sunday
104,0.4236900503782224
2,1, 1, 1, 0, 3,30.00,45.00,Sunday
104,0.4236900503782224
2,1, 1, 1, 0, 3,45.00,60.00,Sunday
104,0.4236900503782224
2,1, 1, 1, 0, 4, 0.00,15.00,Sunday
104,0.4236900503782224
2,1, 1, 1, 0, 4,15.00,30.00,Sunday
104,0.4236900503782224
2,1, 1, 1, 0, 4,30.00,45.00,Sunday
104,0.4236900503782224
2,1, 1, 1, 0, 4,45.00,60.00,Sunday
104,0.4236900503782224
2,1, 1, 1, 0, 5, 0.00,15.00,Sunday
104,0.4236900503782224
2,1, 1, 1, 0, 5,15.00,30.00,Sunday
104,0.4236900503782224
2,1, 1, 1, 0, 5,30.00,45.00,Sunday
104,0.4236900503782224
2,1, 1, 1, 0, 5,45.00,60.00,Sunday
104,0.4236900503782224
2,1, 1, 1, 0, 6, 0.00,15.00,Sunday
104,0.4236900503782224
2,1, 1, 1, 0, 6,15.00,30.00,Sunday
104,0.4236900503782224
2,1, 1, 1, 0, 6,30.00,45.00,Sunday
104,0.4236900503782224
2,1, 1, 1, 0, 6,45.00,60.00,Sunday
104,0.4236900503782224
2,1, 1, 1, 0, 7, 0.00,15.00,Sunday
104,0.4236900503782224
2,1, 1, 1, 0, 7,15.00,30.00,Sunday
104,0.4236900503782224
2,1, 1, 1, 0, 7,30.00,45.00,Sunday
104,0.4236900503782224
2,1, 1, 1, 0, 7,45.00,60.00,Sunday
104,0.4236900503782224
2,1, 1, 1, 0, 8, 0.00,15.00,Sunday
104,0.4236900503782224
2,1, 1, 1, 0, 8,15.00,30.00,Sunday
104,0.4236900503782224
2,1, 1, 1, 0, 8,30.00,45.00,Sunday
104,0.7388205645583942
2,1, 1, 1, 0, 8,45.00,60.00,Sunday
104,1.6116431306375399
2,1, 1, 1, 0, 9, 0.00,15.00,Sunday
104,3.0411633357980278
2,1, 1, 1, 0, 9,15.00,30.00,Sunday
104,5.353630392402007
2,1, 1, 1, 0, 9,30.00,45.00,Sunday
104,5.591992269270859
2,1, 1, 1, 0, 9,45.00,60.00,Sunday
104,5.026158308107242
2,1, 1, 1, 0,10, 0.00,15.00,Sunday
104,3.362937037547825
2,1, 1, 1, 0,10,15.00,30.00,Sunday
104,2.9781129081284849
2,1, 1, 1, 0,10,30.00,45.00,Sunday
104,44.285162639262718
2,1, 1, 1, 0,10,45.00,60.00,Sunday
104,100.99751841252085
2,1, 1, 1, 0,11, 0.00,15.00,Sunday
104,4.667188460605856
2,1, 1, 1, 0,11,15.00,30.00,Sunday
104,5.9918448935746
2,1, 1, 1, 0,11,30.00,45.00,Sunday
104,6.3042160025714539
2,1, 1, 1, 0,11,45.00,60.00,Sunday
104,6.551726829507996
2,1, 1, 1, 0,12, 0.00,15.00,Sunday
104,6.891709754584382
2,1, 1, 1, 0,12,15.00,30.00,Sunday
104,7.330118239938439
2,1, 1, 1, 0,12,30.00,45.00,Sunday
104,7.299831520772014
2,1, 1, 1, 0,12,45.00,60.00,Sunday
104,7.231879139531364
2,1, 1, 1, 0,13, 0.00,15.00,Sunday
104,7.239141635168928
2,1, 1, 1, 0,13,15.00,30.00,Sunday
104,7.208290822116355
2,1, 1, 1, 0,13,30.00,45.00,Sunday
104,7.119920547447407
2,1, 1, 1, 0,13,45.00,60.00,Sunday
104,6.98995054081849
2,1, 1, 1, 0,14, 0.00,15.00,Sunday
104,6.9498294367604489
2,1, 1, 1, 0,14,15.00,30.00,Sunday
104,6.858223895749308
2,1, 1, 1, 0,14,30.00,45.00,Sunday
104,6.541039142372288
2,1, 1, 1, 0,14,45.00,60.00,Sunday
104,6.17445256637778
2,1, 1, 1, 0,15, 0.00,15.00,Sunday
104,5.997397048628338
2,1, 1, 1, 0,15,15.00,30.00,Sunday
104,5.72711407869676
2,1, 1, 1, 0,15,30.00,45.00,Sunday
104,5.307222665750193
2,1, 1, 1, 0,15,45.00,60.00,Sunday
104,4.80305336941616
2,1, 1, 1, 0,16, 0.00,15.00,Sunday
104,4.8584998953926139
2,1, 1, 1, 0,16,15.00,30.00,Sunday
104,4.8584998953926139
2,1, 1, 1, 0,16,30.00,45.00,Sunday
104,3.385717274565002
2,1, 1, 1, 0,16,45.00,60.00,Sunday
104,2.1257193132728444
2,1, 1, 1, 0,17, 0.00,15.00,Sunday
104,0.7478347759688327
2,1, 1, 1, 0,17,15.00,30.00,Sunday
104,0.4236900503782224
2,1, 1, 1, 0,17,30.00,45.00,Sunday
104,0.4236900503782224
2,1, 1, 1, 0,17,45.00,60.00,Sunday
104,0.4236900503782224
2,1, 1, 1, 0,18, 0.00,15.00,Sunday
104,0.4236900503782224
2,1, 1, 1, 0,18,15.00,30.00,Sunday
104,0.4236900503782224
2,1, 1, 1, 0,18,30.00,45.00,Sunday
104,0.4236900503782224
2,1, 1, 1, 0,18,45.00,60.00,Sunday
104,0.4236900503782224
2,1, 1, 1, 0,19, 0.00,15.00,Sunday
104,0.4236900503782224
2,1, 1, 1, 0,19,15.00,30.00,Sunday
104,0.4236900503782224
2,1, 1, 1, 0,19,30.00,45.00,Sunday
104,0.4236900503782224
2,1, 1, 1, 0,19,45.00,60.00,Sunday
104,0.4236900503782224
2,1, 1, 1, 0,20, 0.00,15.00,Sunday
104,0.4236900503782224
2,1, 1, 1, 0,20,15.00,30.00,Sunday
104,0.4236900503782224
2,1, 1, 1, 0,20,30.00,45.00,Sunday
104,0.4236900503782224
2,1, 1, 1, 0,20,45.00,60.00,Sunday
104,0.4236900503782224
2,1, 1, 1, 0,21, 0.00,15.00,Sunday
104,0.4236900503782224
2,1, 1, 1, 0,21,15.00,30.00,Sunday
104,0.4236900503782224
2,1, 1, 1, 0,21,30.00,45.00,Sunday
104,0.4236900503782224
2,1, 1, 1, 0,21,45.00,60.00,Sunday
104,0.4236900503782224
2,1, 1, 1, 0,22, 0.00,15.00,Sunday
104,0.4236900503782224
2,1, 1, 1, 0,22,15.00,30.00,Sunday
104,0.4236900503782224
2,1, 1, 1, 0,22,30.00,45.00,Sunday
104,0.4236900503782224
2,1, 1, 1, 0,22,45.00,60.00,Sunday
104,0.4236900503782224
2,1, 1, 1, 0,23, 0.00,15.00,Sunday
104,0.4236900503782224
2,1, 1, 1, 0,23,15.00,30.00,Sunday
104,0.4236900503782224
2,1, 1, 1, 0,23,30.00,45.00,Sunday
104,0.4236900503782224
2,1, 1, 1, 0,23,45.00,60.00,Sunday
104,0.4236900503782224
2,1, 1, 1, 0,24, 0.00,15.00,Sunday
104,0.4236900503782224
2,1, 1, 1, 0,24,15.00,30.00,Sunday
104,0.4236900503782224
2,1, 1, 1, 0,24,30.00,45.00,Sunday
104,0.4236900503782224
2,1, 1, 1, 0,24,45.00,60.00,Sunday
104,0.4236900503782224
2,2, 1, 2, 0, 1, 0.00,15.00,Monday
104,0.4236900503782224
2,2, 1, 2, 0, 1,15.00,30.00,Monday
104,0.4236900503782224
2,2, 1, 2, 0, 1,30.00,45.00,Monday
104,0.4236900503782224
2,2, 1, 2, 0, 1,45.00,60.00,Monday
104,0.4236900503782224
2,2, 1, 2, 0, 2, 0.00,15.00,Monday
104,0.4236900503782224
2,2, 1, 2, 0, 2,15.00,30.00,Monday
104,0.4236900503782224
2,2, 1, 2, 0, 2,30.00,45.00,Monday
104,0.4236900503782224
2,2, 1, 2, 0, 2,45.00,60.00,Monday
104,0.4236900503782224
2,2, 1, 2, 0, 3, 0.00,15.00,Monday
104,0.4236900503782224
2,2, 1, 2, 0, 3,15.00,30.00,Monday
104,0.4236900503782224
2,2, 1, 2, 0, 3,30.00,45.00,Monday
104,0.4236900503782224
2,2, 1, 2, 0, 3,45.00,60.00,Monday
104,0.4236900503782224
2,2, 1, 2, 0, 4, 0.00,15.00,Monday
104,0.4236900503782224
2,2, 1, 2, 0, 4,15.00,30.00,Monday
104,0.4236900503782224
2,2, 1, 2, 0, 4,30.00,45.00,Monday
104,0.4236900503782224
2,2, 1, 2, 0, 4,45.00,60.00,Monday
104,0.4236900503782224
2,2, 1, 2, 0, 5, 0.00,15.00,Monday
104,0.4236900503782224
2,2, 1, 2, 0, 5,15.00,30.00,Monday
104,0.4236900503782224
2,2, 1, 2, 0, 5,30.00,45.00,Monday
104,0.4236900503782224
2,2, 1, 2, 0, 5,45.00,60.00,Monday
104,0.4236900503782224
2,2, 1, 2, 0, 6, 0.00,15.00,Monday
104,0.4236900503782224
2,2, 1, 2, 0, 6,15.00,30.00,Monday
104,0.4236900503782224
2,2, 1, 2, 0, 6,30.00,45.00,Monday
104,0.4236900503782224
2,2, 1, 2, 0, 6,45.00,60.00,Monday
104,0.4236900503782224
2,2, 1, 2, 0, 7, 0.00,15.00,Monday
104,0.4236900503782224
2,2, 1, 2, 0, 7,15.00,30.00,Monday
104,0.4236900503782224
2,2, 1, 2, 0, 7,30.00,45.00,Monday
104,0.4236900503782224
2,2, 1, 2, 0, 7,45.00,60.00,Monday
104,0.4236900503782224
2,2, 1, 2, 0, 8, 0.00,15.00,Monday
104,0.4236900503782224
2,2, 1, 2, 0, 8,15.00,30.00,Monday
104,0.4236900503782224
2,2, 1, 2, 0, 8,30.00,45.00,Monday
104,0.4236900503782224
2,2, 1, 2, 0, 8,45.00,60.00,Monday
104,0.4236900503782224
2,2, 1, 2, 0, 9, 0.00,15.00,Monday
104,0.4236900503782224
2,2, 1, 2, 0, 9,15.00,30.00,Monday
104,3.0165053136585078
2,2, 1, 2, 0, 9,30.00,45.00,Monday
104,1.2319135508620958
2,2, 1, 2, 0, 9,45.00,60.00,Monday
104,0.9865287930165175
2,2, 1, 2, 0,10, 0.00,15.00,Monday
104,0.9134303182710428
2,2, 1, 2, 0,10,15.00,30.00,Monday
104,0.9057174720515288
2,2, 1, 2, 0,10,30.00,45.00,Monday
104,0.8731005051718609
2,2, 1, 2, 0,10,45.00,60.00,Monday
104,0.8562024656449403
2,2, 1, 2, 0,11, 0.00,15.00,Monday
104,0.8105576150444935
2,2, 1, 2, 0,11,15.00,30.00,Monday
104,0.7682890413716759
2,2, 1, 2, 0,11,30.00,45.00,Monday
104,0.7361996610357475
2,2, 1, 2, 0,11,45.00,60.00,Monday
104,0.7029587726825213
2,2, 1, 2, 0,12, 0.00,15.00,Monday
104,0.7009711319080123
2,2, 1, 2, 0,12,15.00,30.00,Monday
104,0.6982433829664084
2,2, 1, 2, 0,12,30.00,45.00,Monday
104,0.7031599103138628
2,2, 1, 2, 0,12,45.00,60.00,Monday
104,0.7064637218661983
2,2, 1, 2, 0,13, 0.00,15.00,Monday
104,0.7053846967081011
2,2, 1, 2, 0,13,15.00,30.00,Monday
104,0.7026242458804627
2,2, 1, 2, 0,13,30.00,45.00,Monday
104,0.7074552997025863
2,2, 1, 2, 0,13,45.00,60.00,Monday
104,0.7113993798344873
2,2, 1, 2, 0,14, 0.00,15.00,Monday
104,0.7117028796374448
2,2, 1, 2, 0,14,15.00,30.00,Monday
104,0.7123806600380266
2,2, 1, 2, 0,14,30.00,45.00,Monday
104,0.7231309389233347
2,2, 1, 2, 0,14,45.00,60.00,Monday
104,0.7385630614366754
2,2, 1, 2, 0,15, 0.00,15.00,Monday
104,0.7908823552529981
2,2, 1, 2, 0,15,15.00,30.00,Monday
104,0.854751498704594
2,2, 1, 2, 0,15,30.00,45.00,Monday
104,0.885883344841596
2,2, 1, 2, 0,15,45.00,60.00,Monday
104,0.9552828288599771
2,2, 1, 2, 0,16, 0.00,15.00,Monday
104,1.093997285345578
2,2, 1, 2, 0,16,15.00,30.00,Monday
104,1.7819659734478513
2,2, 1, 2, 0,16,30.00,45.00,Monday
104,1.7819659734478513
2,2, 1, 2, 0,16,45.00,60.00,Monday
104,1.7819659734478513
2,2, 1, 2, 0,17, 0.00,15.00,Monday
104,1.7819659734478513
2,2, 1, 2, 0,17,15.00,30.00,Monday
104,0.05010383017150634
2,2, 1, 2, 0,17,30.00,45.00,Monday
104,0.05010383017150634
2,2, 1, 2, 0,17,45.00,60.00,Monday
104,0.05010383017150634
2,2, 1, 2, 0,18, 0.00,15.00,Monday
104,0.05010383017150634
2,2, 1, 2, 0,18,15.00,30.00,Monday
104,0.05010383017150634
2,2, 1, 2, 0,18,30.00,45.00,Monday
104,0.05010383017150634
2,2, 1, 2, 0,18,45.00,60.00,Monday
104,0.05010383017150634
2,2, 1, 2, 0,19, 0.00,15.00,Monday
104,0.05010383017150634
2,2, 1, 2, 0,19,15.00,30.00,Monday
104,0.05010383017150634
2,2, 1, 2, 0,19,30.00,45.00,Monday
104,0.05010383017150634
2,2, 1, 2, 0,19,45.00,60.00,Monday
104,0.05010383017150634
2,2, 1, 2, 0,20, 0.00,15.00,Monday
104,0.05010383017150634
2,2, 1, 2, 0,20,15.00,30.00,Monday
104,0.05010383017150634
2,2, 1, 2, 0,20,30.00,45.00,Monday
104,0.05010383017150634
2,2, 1, 2, 0,20,45.00,60.00,Monday
104,0.05010383017150634
2,2, 1, 2, 0,21, 0.00,15.00,Monday
104,0.05010383017150634
2,2, 1, 2, 0,21,15.00,30.00,Monday
104,0.05010383017150634
2,2, 1, 2, 0,21,30.00,45.00,Monday
104,0.05010383017150634
2,2, 1, 2, 0,21,45.00,60.00,Monday
104,0.05010383017150634
2,2, 1, 2, 0,22, 0.00,15.00,Monday
104,0.05010383017150634
2,2, 1, 2, 0,22,15.00,30.00,Monday
104,0.05010383017150634
2,2, 1, 2, 0,22,30.00,45.00,Monday
104,0.05010383017150634
2,2, 1, 2, 0,22,45.00,60.00,Monday
104,0.05010383017150634
2,2, 1, 2, 0,23, 0.00,15.00,Monday
104,0.05010383017150634
2,2, 1, 2, 0,23,15.00,30.00,Monday
104,0.05010383017150634
2,2, 1, 2, 0,23,30.00,45.00,Monday
104,0.05010383017150634
2,2, 1, 2, 0,23,45.00,60.00,Monday
104,0.05010383017150634
2,2, 1, 2, 0,24, 0.00,15.00,Monday
104,0.05010383017150634
2,2, 1, 2, 0,24,15.00,30.00,Monday
104,0.05010383017150634
2,2, 1, 2, 0,24,30.00,45.00,Monday
104,0.05010383017150634
2,2, 1, 2, 0,24,45.00,60.00,Monday
104,0.05010383017150634
2,3, 1, 3, 0, 1, 0.00,15.00,Tuesday
104,0.05010383017150634
2,3, 1, 3, 0, 1,15.00,30.00,Tuesday
104,0.05010383017150634
2,3, 1, 3, 0, 1,30.00,45.00,Tuesday
104,0.05010383017150634
2,3, 1, 3, 0, 1,45.00,60.00,Tuesday
104,0.05010383017150634
2,3, 1, 3, 0, 2, 0.00,15.00,Tuesday
104,0.05010383017150634
2,3, 1, 3, 0, 2,15.00,30.00,Tuesday
104,0.05010383017150634
2,3, 1, 3, 0, 2,30.00,45.00,Tuesday
104,0.05010383017150634
2,3, 1, 3, 0, 2,45.00,60.00,Tuesday
104,0.05010383017150634
2,3, 1, 3, 0, 3, 0.00,15.00,Tuesday
104,0.05010383017150634
2,3, 1, 3, 0, 3,15.00,30.00,Tuesday
104,0.05010383017150634
2,3, 1, 3, 0, 3,30.00,45.00,Tuesday
104,0.05010383017150634
2,3, 1, 3, 0, 3,45.00,60.00,Tuesday
104,0.05010383017150634
2,3, 1, 3, 0, 4, 0.00,15.00,Tuesday
104,0.05010383017150634
2,3, 1, 3, 0, 4,15.00,30.00,Tuesday
104,0.05010383017150634
2,3, 1, 3, 0, 4,30.00,45.00,Tuesday
104,0.05010383017150634
2,3, 1, 3, 0, 4,45.00,60.00,Tuesday
104,0.05010383017150634
2,3, 1, 3, 0, 5, 0.00,15.00,Tuesday
104,0.05010383017150634
2,3, 1, 3, 0, 5,15.00,30.00,Tuesday
104,0.05010383017150634
2,3, 1, 3, 0, 5,30.00,45.00,Tuesday
104,0.05010383017150634
2,3, 1, 3, 0, 5,45.00,60.00,Tuesday
104,0.05010383017150634
2,3, 1, 3, 0, 6, 0.00,15.00,Tuesday
104,0.05010383017150634
2,3, 1, 3, 0, 6,15.00,30.00,Tuesday
104,0.05010383017150634
2,3, 1, 3, 0, 6,30.00,45.00,Tuesday
104,0.05010383017150634
2,3, 1, 3, 0, 6,45.00,60.00,Tuesday
104,0.05010383017150634
2,3, 1, 3, 0, 7, 0.00,15.00,Tuesday
104,0.05010383017150634
2,3, 1, 3, 0, 7,15.00,30.00,Tuesday
104,0.05010383017150634
2,3, 1, 3, 0, 7,30.00,45.00,Tuesday
104,0.05010383017150634
2,3, 1, 3, 0, 7,45.00,60.00,Tuesday
104,0.05010383017150634
2,3, 1, 3, 0, 8, 0.00,15.00,Tuesday
104,0.05010383017150634
2,3, 1, 3, 0, 8,15.00,30.00,Tuesday
104,0.05010383017150634
2,3, 1, 3, 0, 8,30.00,45.00,Tuesday
104,0.3932775958578913
2,3, 1, 3, 0, 8,45.00,60.00,Tuesday
104,0.8045164667540252
2,3, 1, 3, 0, 9, 0.00,15.00,Tuesday
104,1.4063701770258546
2,3, 1, 3, 0, 9,15.00,30.00,Tuesday
104,2.322937085218983
2,3, 1, 3, 0, 9,30.00,45.00,Tuesday
104,2.3528993477336197
2,3, 1, 3, 0, 9,45.00,60.00,Tuesday
104,2.144469234831808
2,3, 1, 3, 0,10, 0.00,15.00,Tuesday
104,2.816092956476907
2,3, 1, 3, 0,10,15.00,30.00,Tuesday
104,1.6645134217323037
2,3, 1, 3, 0,10,30.00,45.00,Tuesday
104,1.672136442944874
2,3, 1, 3, 0,10,45.00,60.00,Tuesday
104,1.691388885313691
2,3, 1, 3, 0,11, 0.00,15.00,Tuesday
104,1.63446771282225
2,3, 1, 3, 0,11,15.00,30.00,Tuesday
104,1.5788802899052748
2,3, 1, 3, 0,11,30.00,45.00,Tuesday
104,29.097638746228676
2,3, 1, 3, 0,11,45.00,60.00,Tuesday
104,29.66267834397225
2,3, 1, 3, 0,12, 0.00,15.00,Tuesday
104,34.610744878133257
2,3, 1, 3, 0,12,15.00,30.00,Tuesday
104,38.05079037511382
2,3, 1, 3, 0,12,30.00,45.00,Tuesday
104,36.86747941712353
2,3, 1, 3, 0,12,45.00,60.00,Tuesday
104,35.51989807585159
2,3, 1, 3, 0,13, 0.00,15.00,Tuesday
104,34.31319034917918
2,3, 1, 3, 0,13,15.00,30.00,Tuesday
104,32.936795499194747
2,3, 1, 3, 0,13,30.00,45.00,Tuesday
104,32.330070456463939
2,3, 1, 3, 0,13,45.00,60.00,Tuesday
104,31.492116145440204
2,3, 1, 3, 0,14, 0.00,15.00,Tuesday
104,31.324478456977123
2,3, 1, 3, 0,14,15.00,30.00,Tuesday
104,28.18455448467267
2,3, 1, 3, 0,14,30.00,45.00,Tuesday
104,27.774702436881886
2,3, 1, 3, 0,14,45.00,60.00,Tuesday
104,26.685484378189157
2,3, 1, 3, 0,15, 0.00,15.00,Tuesday
104,48.630866007772798
2,3, 1, 3, 0,15,15.00,30.00,Tuesday
104,67.12685409022213
2,3, 1, 3, 0,15,30.00,45.00,Tuesday
104,3.715743878506266
2,3, 1, 3, 0,15,45.00,60.00,Tuesday
104,3.6954054020006277
2,3, 1, 3, 0,16, 0.00,15.00,Tuesday
104,4.128782656427721
2,3, 1, 3, 0,16,15.00,30.00,Tuesday
104,4.328083699148957
2,3, 1, 3, 0,16,30.00,45.00,Tuesday
104,3.179862903591307
2,3, 1, 3, 0,16,45.00,60.00,Tuesday
104,1.9940961326671419
2,3, 1, 3, 0,17, 0.00,15.00,Tuesday
104,0.7124153463160273
2,3, 1, 3, 0,17,15.00,30.00,Tuesday
104,0.3864678819773212
2,3, 1, 3, 0,17,30.00,45.00,Tuesday
104,0.3864678819773212
2,3, 1, 3, 0,17,45.00,60.00,Tuesday
104,0.3864678819773212
2,3, 1, 3, 0,18, 0.00,15.00,Tuesday
104,0.3864678819773212
2,3, 1, 3, 0,18,15.00,30.00,Tuesday
104,0.3864678819773212
2,3, 1, 3, 0,18,30.00,45.00,Tuesday
104,0.3864678819773212
2,3, 1, 3, 0,18,45.00,60.00,Tuesday
104,0.3864678819773212
2,3, 1, 3, 0,19, 0.00,15.00,Tuesday
104,0.3864678819773212
2,3, 1, 3, 0,19,15.00,30.00,Tuesday
104,0.3864678819773212
2,3, 1, 3, 0,19,30.00,45.00,Tuesday
104,0.3864678819773212
2,3, 1, 3, 0,19,45.00,60.00,Tuesday
104,0.3864678819773212
2,3, 1, 3, 0,20, 0.00,15.00,Tuesday
104,0.3864678819773212
2,3, 1, 3, 0,20,15.00,30.00,Tuesday
104,0.3864678819773212
2,3, 1, 3, 0,20,30.00,45.00,Tuesday
104,0.3864678819773212
2,3, 1, 3, 0,20,45.00,60.00,Tuesday
104,0.3864678819773212
2,3, 1, 3, 0,21, 0.00,15.00,Tuesday
104,0.3864678819773212
2,3, 1, 3, 0,21,15.00,30.00,Tuesday
104,0.3864678819773212
2,3, 1, 3, 0,21,30.00,45.00,Tuesday
104,0.3864678819773212
2,3, 1, 3, 0,21,45.00,60.00,Tuesday
104,0.3864678819773212
2,3, 1, 3, 0,22, 0.00,15.00,Tuesday
104,0.3864678819773212
2,3, 1, 3, 0,22,15.00,30.00,Tuesday
104,0.3864678819773212
2,3, 1, 3, 0,22,30.00,45.00,Tuesday
104,0.3864678819773212
2,3, 1, 3, 0,22,45.00,60.00,Tuesday
104,0.3864678819773212
2,3, 1, 3, 0,23, 0.00,15.00,Tuesday
104,0.3864678819773212
2,3, 1, 3, 0,23,15.00,30.00,Tuesday
104,0.3864678819773212
2,3, 1, 3, 0,23,30.00,45.00,Tuesday
104,0.3864678819773212
2,3, 1, 3, 0,23,45.00,60.00,Tuesday
104,0.3864678819773212
2,3, 1, 3, 0,24, 0.00,15.00,Tuesday
104,0.3864678819773212
2,3, 1, 3, 0,24,15.00,30.00,Tuesday
104,0.3864678819773212
2,3, 1, 3, 0,24,30.00,45.00,Tuesday
104,0.3864678819773212
2,3, 1, 3, 0,24,45.00,60.00,Tuesday
104,0.3864678819773212
2,4, 1, 4, 0, 1, 0.00,15.00,Wednesday
104,0.3864678819773212
2,4, 1, 4, 0, 1,15.00,30.00,Wednesday
104,0.3864678819773212
2,4, 1, 4, 0, 1,30.00,45.00,Wednesday
104,0.3864678819773212
2,4, 1, 4, 0, 1,45.00,60.00,Wednesday
104,0.3864678819773212
2,4, 1, 4, 0, 2, 0.00,15.00,Wednesday
104,0.3864678819773212
2,4, 1, 4, 0, 2,15.00,30.00,Wednesday
104,0.3864678819773212
2,4, 1, 4, 0, 2,30.00,45.00,Wednesday
104,0.3864678819773212
2,4, 1, 4, 0, 2,45.00,60.00,Wednesday
104,0.3864678819773212
2,4, 1, 4, 0, 3, 0.00,15.00,Wednesday
104,0.3864678819773212
2,4, 1, 4, 0, 3,15.00,30.00,Wednesday
104,0.3864678819773212
2,4, 1, 4, 0, 3,30.00,45.00,Wednesday
104,0.3864678819773212
2,4, 1, 4, 0, 3,45.00,60.00,Wednesday
104,0.3864678819773212
2,4, 1, 4, 0, 4, 0.00,15.00,Wednesday
104,0.3864678819773212
2,4, 1, 4, 0, 4,15.00,30.00,Wednesday
104,0.3864678819773212
2,4, 1, 4, 0, 4,30.00,45.00,Wednesday
104,0.3864678819773212
2,4, 1, 4, 0, 4,45.00,60.00,Wednesday
104,0.3864678819773212
2,4, 1, 4, 0, 5, 0.00,15.00,Wednesday
104,0.3864678819773212
2,4, 1, 4, 0, 5,15.00,30.00,Wednesday
104,0.3864678819773212
2,4, 1, 4, 0, 5,30.00,45.00,Wednesday
104,0.3864678819773212
2,4, 1, 4, 0, 5,45.00,60.00,Wednesday
104,0.3864678819773212
2,4, 1, 4, 0, 6, 0.00,15.00,Wednesday
104,0.3864678819773212
2,4, 1, 4, 0, 6,15.00,30.00,Wednesday
104,0.3864678819773212
2,4, 1, 4, 0, 6,30.00,45.00,Wednesday
104,0.3864678819773212
2,4, 1, 4, 0, 6,45.00,60.00,Wednesday
104,0.3864678819773212
2,4, 1, 4, 0, 7, 0.00,15.00,Wednesday
104,0.3864678819773212
2,4, 1, 4, 0, 7,15.00,30.00,Wednesday
104,0.3864678819773212
2,4, 1, 4, 0, 7,30.00,45.00,Wednesday
104,0.3864678819773212
2,4, 1, 4, 0, 7,45.00,60.00,Wednesday
104,0.3864678819773212
2,4, 1, 4, 0, 8, 0.00,15.00,Wednesday
104,0.3864678819773212
2,4, 1, 4, 0, 8,15.00,30.00,Wednesday
104,8.477908427217104
2,4, 1, 4, 0, 8,30.00,45.00,Wednesday
104,6.60221499900389
2,4, 1, 4, 0, 8,45.00,60.00,Wednesday
104,10.22703488258527
2,4, 1, 4, 0, 9, 0.00,15.00,Wednesday
104,18.87266688579625
2,4, 1, 4, 0, 9,15.00,30.00,Wednesday
104,35.08578594801864
2,4, 1, 4, 0, 9,30.00,45.00,Wednesday
104,55.93782322491664
2,4, 1, 4, 0, 9,45.00,60.00,Wednesday
104,3.6232450365295918
2,4, 1, 4, 0,10, 0.00,15.00,Wednesday
104,4.069322350397326
2,4, 1, 4, 0,10,15.00,30.00,Wednesday
104,4.483222667681596
2,4, 1, 4, 0,10,30.00,45.00,Wednesday
104,5.348021903163209
2,4, 1, 4, 0,10,45.00,60.00,Wednesday
104,5.903767132930021
2,4, 1, 4, 0,11, 0.00,15.00,Wednesday
104,6.6339785714097
2,4, 1, 4, 0,11,15.00,30.00,Wednesday
104,7.396585090108044
2,4, 1, 4, 0,11,30.00,45.00,Wednesday
104,7.40209959398583
2,4, 1, 4, 0,11,45.00,60.00,Wednesday
104,7.367048940926091
2,4, 1, 4, 0,12, 0.00,15.00,Wednesday
104,7.5572932083003
2,4, 1, 4, 0,12,15.00,30.00,Wednesday
104,7.614370697000614
2,4, 1, 4, 0,12,30.00,45.00,Wednesday
104,7.5766226328642889
2,4, 1, 4, 0,12,45.00,60.00,Wednesday
104,7.500252966574354
2,4, 1, 4, 0,13, 0.00,15.00,Wednesday
104,7.50200827706008
2,4, 1, 4, 0,13,15.00,30.00,Wednesday
104,7.464994815280174
2,4, 1, 4, 0,13,30.00,45.00,Wednesday
104,7.334506927525031
2,4, 1, 4, 0,13,45.00,60.00,Wednesday
104,7.16248962171598
2,4, 1, 4, 0,14, 0.00,15.00,Wednesday
104,7.083131261564373
2,4, 1, 4, 0,14,15.00,30.00,Wednesday
104,6.952341401136765
2,4, 1, 4, 0,14,30.00,45.00,Wednesday
104,6.683491539315073
2,4, 1, 4, 0,14,45.00,60.00,Wednesday
104,6.361724603068045
2,4, 1, 4, 0,15, 0.00,15.00,Wednesday
104,6.236732543146292
2,4, 1, 4, 0,15,15.00,30.00,Wednesday
104,6.013622455836977
2,4, 1, 4, 0,15,30.00,45.00,Wednesday
104,5.565854577579315
2,4, 1, 4, 0,15,45.00,60.00,Wednesday
104,5.032290337294914
2,4, 1, 4, 0,16, 0.00,15.00,Wednesday
104,5.09433221044595
2,4, 1, 4, 0,16,15.00,30.00,Wednesday
104,5.09433221044595
2,4, 1, 4, 0,16,30.00,45.00,Wednesday
104,3.640587342352808
2,4, 1, 4, 0,16,45.00,60.00,Wednesday
104,2.370618630266925
2,4, 1, 4, 0,17, 0.00,15.00,Wednesday
104,0.8645027007430032
2,4, 1, 4, 0,17,15.00,30.00,Wednesday
104,0.35157486495222109
2,4, 1, 4, 0,17,30.00,45.00,Wednesday
104,0.35157486495222109
2,4, 1, 4, 0,17,45.00,60.00,Wednesday
104,0.35157486495222109
2,4, 1, 4, 0,18, 0.00,15.00,Wednesday
104,0.35157486495222109
2,4, 1, 4, 0,18,15.00,30.00,Wednesday
104,0.35157486495222109
2,4, 1, 4, 0,18,30.00,45.00,Wednesday
104,0.35157486495222109
2,4, 1, 4, 0,18,45.00,60.00,Wednesday
104,0.35157486495222109
2,4, 1, 4, 0,19, 0.00,15.00,Wednesday
104,0.35157486495222109
2,4, 1, 4, 0,19,15.00,30.00,Wednesday
104,0.35157486495222109
2,4, 1, 4, 0,19,30.00,45.00,Wednesday
104,0.35157486495222109
2,4, 1, 4, 0,19,45.00,60.00,Wednesday
104,0.35157486495222109
2,4, 1, 4, 0,20, 0.00,15.00,Wednesday
104,0.35157486495222109
2,4, 1, 4, 0,20,15.00,30.00,Wednesday
104,0.35157486495222109
2,4, 1, 4, 0,20,30.00,45.00,Wednesday
104,0.35157486495222109
2,4, 1, 4, 0,20,45.00,60.00,Wednesday
104,0.35157486495222109
2,4, 1, 4, 0,21, 0.00,15.00,Wednesday
104,0.35157486495222109
2,4, 1, 4, 0,21,15.00,30.00,Wednesday
104,0.35157486495222109
2,4, 1, 4, 0,21,30.00,45.00,Wednesday
104,0.35157486495222109
2,4, 1, 4, 0,21,45.00,60.00,Wednesday
104,0.35157486495222109
2,4, 1, 4, 0,22, 0.00,15.00,Wednesday
104,0.35157486495222109
2,4, 1, 4, 0,22,15.00,30.00,Wednesday
104,0.35157486495222109
2,4, 1, 4, 0,22,30.00,45.00,Wednesday
104,0.35157486495222109
2,4, 1, 4, 0,22,45.00,60.00,Wednesday
104,0.35157486495222109
2,4, 1, 4, 0,23, 0.00,15.00,Wednesday
104,0.35157486495222109
2,4, 1, 4, 0,23,15.00,30.00,Wednesday
104,0.35157486495222109
2,4, 1, 4, 0,23,30.00,45.00,Wednesday
104,0.35157486495222109
2,4, 1, 4, 0,23,45.00,60.00,Wednesday
104,0.35157486495222109
2,4, 1, 4, 0,24, 0.00,15.00,Wednesday
104,0.35157486495222109
2,4, 1, 4, 0,24,15.00,30.00,Wednesday
104,0.35157486495222109
2,4, 1, 4, 0,24,30.00,45.00,Wednesday
104,0.35157486495222109
2,4, 1, 4, 0,24,45.00,60.00,Wednesday
104,0.35157486495222109
2,5, 1, 5, 0, 1, 0.00,15.00,Thursday
104,0.35157486495222109
2,5, 1, 5, 0, 1,15.00,30.00,Thursday
104,0.35157486495222109
2,5, 1, 5, 0, 1,30.00,45.00,Thursday
104,0.35157486495222109
2,5, 1, 5, 0, 1,45.00,60.00,Thursday
104,0.35157486495222109
2,5, 1, 5, 0, 2, 0.00,15.00,Thursday
104,0.35157486495222109
2,5, 1, 5, 0, 2,15.00,30.00,Thursday
104,0.35157486495222109
2,5, 1, 5, 0, 2,30.00,45.00,Thursday
104,0.35157486495222109
2,5, 1, 5, 0, 2,45.00,60.00,Thursday
104,0.35157486495222109
2,5, 1, 5, 0, 3, 0.00,15.00,Thursday
104,0.35157486495222109
2,5, 1, 5, 0, 3,15.00,30.00,Thursday
104,0.35157486495222109
2,5, 1, 5, 0, 3,30.00,45.00,Thursday
104,0.35157486495222109
2,5, 1, 5, 0, 3,45.00,60.00,Thursday
104,0.35157486495222109
2,5, 1, 5, 0, 4, 0.00,15.00,Thursday
104,0.35157486495222109
2,5, 1, 5, 0, 4,15.00,30.00,Thursday
104,0.35157486495222109
2,5, 1, 5, 0, 4,30.00,45.00,Thursday
104,0.35157486495222109
2,5, 1, 5, 0, 4,45.00,60.00,Thursday
104,0.35157486495222109
2,5, 1, 5, 0, 5, 0.00,15.00,Thursday
104,0.35157486495222109
2,5, 1, 5, 0, 5,15.00,30.00,Thursday
104,0.35157486495222109
2,5, 1, 5, 0, 5,30.00,45.00,Thursday
104,0.35157486495222109
2,5, 1, 5, 0, 5,45.00,60.00,Thursday
104,0.35157486495222109
2,5, 1, 5, 0, 6, 0.00,15.00,Thursday
104,0.35157486495222109
2,5, 1, 5, 0, 6,15.00,30.00,Thursday
104,0.35157486495222109
2,5, 1, 5, 0, 6,30.00,45.00,Thursday
104,0.35157486495222109
2,5, 1, 5, 0, 6,45.00,60.00,Thursday
104,0.35157486495222109
2,5, 1, 5, 0, 7, 0.00,15.00,Thursday
104,0.35157486495222109
2,5, 1, 5, 0, 7,15.00,30.00,Thursday
104,0.35157486495222109
2,5, 1, 5, 0, 7,30.00,45.00,Thursday
104,0.35157486495222109
2,5, 1, 5, 0, 7,45.00,60.00,Thursday
104,0.35157486495222109
2,5, 1, 5, 0, 8, 0.00,15.00,Thursday
104,0.35157486495222109
2,5, 1, 5, 0, 8,15.00,30.00,Thursday
104,9.314541133355334
2,5, 1, 5, 0, 8,30.00,45.00,Thursday
104,8.43409295650479
2,5, 1, 5, 0, 8,45.00,60.00,Thursday
104,15.250070753433205
2,5, 1, 5, 0, 9, 0.00,15.00,Thursday
104,30.918997516874698
2,5, 1, 5, 0, 9,15.00,30.00,Thursday
104,60.40847590087249
2,5, 1, 5, 0, 9,30.00,45.00,Thursday
104,5.752289499488557
2,5, 1, 5, 0, 9,45.00,60.00,Thursday
104,5.745014363802143
2,5, 1, 5, 0,10, 0.00,15.00,Thursday
104,6.151414610904309
2,5, 1, 5, 0,10,15.00,30.00,Thursday
104,6.505007342333828
2,5, 1, 5, 0,10,30.00,45.00,Thursday
104,6.479640152150738
2,5, 1, 5, 0,10,45.00,60.00,Thursday
104,6.3881193701554859
2,5, 1, 5, 0,11, 0.00,15.00,Thursday
104,6.500273332722228
2,5, 1, 5, 0,11,15.00,30.00,Thursday
104,6.587156251072846
2,5, 1, 5, 0,11,30.00,45.00,Thursday
104,6.494153375309738
2,5, 1, 5, 0,11,45.00,60.00,Thursday
104,6.364790739589123
2,5, 1, 5, 0,12, 0.00,15.00,Thursday
104,6.319230670610803
2,5, 1, 5, 0,12,15.00,30.00,Thursday
104,6.244758058002545
2,5, 1, 5, 0,12,30.00,45.00,Thursday
104,6.426480403031674
2,5, 1, 5, 0,12,45.00,60.00,Thursday
104,6.482150037475233
2,5, 1, 5, 0,13, 0.00,15.00,Thursday
104,6.603828026375887
2,5, 1, 5, 0,13,15.00,30.00,Thursday
104,6.691674201685736
2,5, 1, 5, 0,13,30.00,45.00,Thursday
104,6.619333037665066
2,5, 1, 5, 0,13,45.00,60.00,Thursday
104,6.508707459888197
2,5, 1, 5, 0,14, 0.00,15.00,Thursday
104,6.482526553278666
2,5, 1, 5, 0,14,15.00,30.00,Thursday
104,6.4092842492513919
2,5, 1, 5, 0,14,30.00,45.00,Thursday
104,6.221317504321712
2,5, 1, 5, 0,14,45.00,60.00,Thursday
104,5.982060992716239
2,5, 1, 5, 0,15, 0.00,15.00,Thursday
104,5.928048626945854
2,5, 1, 5, 0,15,15.00,30.00,Thursday
104,5.781855792733763
2,5, 1, 5, 0,15,30.00,45.00,Thursday
104,5.342423861801713
2,5, 1, 5, 0,15,45.00,60.00,Thursday
104,4.821977284284497
2,5, 1, 5, 0,16, 0.00,15.00,Thursday
104,4.873160533363722
2,5, 1, 5, 0,16,15.00,30.00,Thursday
104,4.873160533363722
2,5, 1, 5, 0,16,30.00,45.00,Thursday
104,3.4542920462071535
2,5, 1, 5, 0,16,45.00,60.00,Thursday
104,2.227923642066761
2,5, 1, 5, 0,17, 0.00,15.00,Thursday
104,0.8044444594082768
2,5, 1, 5, 0,17,15.00,30.00,Thursday
104,0.4078572484700594
2,5, 1, 5, 0,17,30.00,45.00,Thursday
104,0.4078572484700594
2,5, 1, 5, 0,17,45.00,60.00,Thursday
104,0.4078572484700594
2,5, 1, 5, 0,18, 0.00,15.00,Thursday
104,0.4078572484700594
2,5, 1, 5, 0,18,15.00,30.00,Thursday
104,0.4078572484700594
2,5, 1, 5, 0,18,30.00,45.00,Thursday
104,0.4078572484700594
2,5, 1, 5, 0,18,45.00,60.00,Thursday
104,0.4078572484700594
2,5, 1, 5, 0,19, 0.00,15.00,Thursday
104,0.4078572484700594
2,5, 1, 5, 0,19,15.00,30.00,Thursday
104,0.4078572484700594
2,5, 1, 5, 0,19,30.00,45.00,Thursday
104,0.4078572484700594
2,5, 1, 5, 0,19,45.00,60.00,Thursday
104,0.4078572484700594
2,5, 1, 5, 0,20, 0.00,15.00,Thursday
104,0.4078572484700594
2,5, 1, 5, 0,20,15.00,30.00,Thursday
104,0.4078572484700594